 4
 Free_Energy: -56.529751 Electronic_Energy: -56.5464986382
H	-0.000000 0.948529 -0.249721
H	0.821450 -0.474265 -0.249721
H	-0.821450 -0.474265 -0.249721
N	0.000000 0.000000 0.107023
