 Entering Gaussian System, Link 0=/appl/soft/chem/gaussian/G16RevC.01//g16/g16
 Initial command:
 /appl/soft/chem/gaussian/G16RevC.01//g16/l1.exe "/scratch/hvehkama/kubeckaj/OTHERS/ACDB/monomers/DFT_freq/calc-LM/TMP/G1611631856_1am/Gau-232000.inp" -scrdir="/scratch/hvehkama/kubeckaj/OTHERS/ACDB/monomers/DFT_freq/calc-LM/TMP/G1611631856_1am/"
 Entering Link 1 = /appl/soft/chem/gaussian/G16RevC.01//g16/l1.exe PID=    232001.
  
 Copyright (c) 1988-2019, Gaussian, Inc.  All Rights Reserved.
  
 This is part of the Gaussian(R) 16 program.  It is based on
 the Gaussian(R) 09 system (copyright 2009, Gaussian, Inc.),
 the Gaussian(R) 03 system (copyright 2003, Gaussian, Inc.),
 the Gaussian(R) 98 system (copyright 1998, Gaussian, Inc.),
 the Gaussian(R) 94 system (copyright 1995, Gaussian, Inc.),
 the Gaussian 92(TM) system (copyright 1992, Gaussian, Inc.),
 the Gaussian 90(TM) system (copyright 1990, Gaussian, Inc.),
 the Gaussian 88(TM) system (copyright 1988, Gaussian, Inc.),
 the Gaussian 86(TM) system (copyright 1986, Carnegie Mellon
 University), and the Gaussian 82(TM) system (copyright 1983,
 Carnegie Mellon University). Gaussian is a federally registered
 trademark of Gaussian, Inc.
  
 This software contains proprietary and confidential information,
 including trade secrets, belonging to Gaussian, Inc.
  
 This software is provided under written license and may be
 used, copied, transmitted, or stored only in accord with that
 written license.
  
 The following legend is applicable only to US Government
 contracts under FAR:
  
                    RESTRICTED RIGHTS LEGEND
  
 Use, reproduction and disclosure by the US Government is
 subject to restrictions as set forth in subparagraphs (a)
 and (c) of the Commercial Computer Software - Restricted
 Rights clause in FAR 52.227-19.
  
 Gaussian, Inc.
 340 Quinnipiac St., Bldg. 40, Wallingford CT 06492
  
  
 ---------------------------------------------------------------
 Warning -- This program may not be used in any manner that
 competes with the business of Gaussian, Inc. or will provide
 assistance to any competitor of Gaussian, Inc.  The licensee
 of this program is prohibited from giving any competitor of
 Gaussian, Inc. access to this program.  By using this program,
 the user acknowledges that Gaussian, Inc. is engaged in the
 business of creating and licensing software in the field of
 computational chemistry and represents and warrants to the
 licensee that it is not a competitor of Gaussian, Inc. and that
 it will not use this program in any manner prohibited above.
 ---------------------------------------------------------------
  

 Cite this work as:
 Gaussian 16, Revision C.01,
 M. J. Frisch, G. W. Trucks, H. B. Schlegel, G. E. Scuseria, 
 M. A. Robb, J. R. Cheeseman, G. Scalmani, V. Barone, 
 G. A. Petersson, H. Nakatsuji, X. Li, M. Caricato, A. V. Marenich, 
 J. Bloino, B. G. Janesko, R. Gomperts, B. Mennucci, H. P. Hratchian, 
 J. V. Ortiz, A. F. Izmaylov, J. L. Sonnenberg, D. Williams-Young, 
 F. Ding, F. Lipparini, F. Egidi, J. Goings, B. Peng, A. Petrone, 
 T. Henderson, D. Ranasinghe, V. G. Zakrzewski, J. Gao, N. Rega, 
 G. Zheng, W. Liang, M. Hada, M. Ehara, K. Toyota, R. Fukuda, 
 J. Hasegawa, M. Ishida, T. Nakajima, Y. Honda, O. Kitao, H. Nakai, 
 T. Vreven, K. Throssell, J. A. Montgomery, Jr., J. E. Peralta, 
 F. Ogliaro, M. J. Bearpark, J. J. Heyd, E. N. Brothers, K. N. Kudin, 
 V. N. Staroverov, T. A. Keith, R. Kobayashi, J. Normand, 
 K. Raghavachari, A. P. Rendell, J. C. Burant, S. S. Iyengar, 
 J. Tomasi, M. Cossi, J. M. Millam, M. Klene, C. Adamo, R. Cammi, 
 J. W. Ochterski, R. L. Martin, K. Morokuma, O. Farkas, 
 J. B. Foresman, and D. J. Fox, Gaussian, Inc., Wallingford CT, 2019.
 
 ******************************************
 Gaussian 16:  ES64L-G16RevC.01  3-Jul-2019
                 4-May-2022 
 ******************************************
 %Nprocshared=8
 Will use up to    8 processors via shared memory.
 %Mem=4000mb
 ----------------------------------------------
 # wb97xd 6-31++g** opt freq Temperature=298.15
 ----------------------------------------------
 1/18=20,19=15,26=3,38=1,112=298150/1,3;
 2/9=110,12=2,17=6,18=5,40=1/2;
 3/5=1,6=6,7=1111,11=2,25=1,30=1,71=1,74=-58/1,2,3;
 4//1;
 5/5=2,38=5/2;
 6/7=2,8=2,9=2,10=2,28=1/1;
 7//1,2,3,16;
 1/18=20,19=15,26=3/3(2);
 2/9=110/2;
 99//99;
 2/9=110/2;
 3/5=1,6=6,7=1111,11=2,25=1,30=1,71=1,74=-58/1,2,3;
 4/5=5,16=3,69=1/1;
 5/5=2,38=5/2;
 7//1,2,3,16;
 1/18=20,19=15,26=3/3(-5);
 2/9=110/2;
 6/7=2,8=2,9=2,10=2,19=2,28=1/1;
 99/9=1/99;
 -------
 1am.xyz
 -------
 Symbolic Z-matrix:
 Charge =  0 Multiplicity = 1
 H                     0.        0.94853  -0.24972 
 H                     0.82145  -0.47427  -0.24972 
 H                    -0.82145  -0.47427  -0.24972 
 N                     0.        0.        0.10702 
 

 GradGradGradGradGradGradGradGradGradGradGradGradGradGradGradGradGradGrad
 Berny optimization.
 Initialization pass.
                           ----------------------------
                           !    Initial Parameters    !
                           ! (Angstroms and Degrees)  !
 --------------------------                            --------------------------
 ! Name  Definition              Value          Derivative Info.                !
 --------------------------------------------------------------------------------
 ! R1    R(1,4)                  1.0134         estimate D2E/DX2                !
 ! R2    R(2,4)                  1.0134         estimate D2E/DX2                !
 ! R3    R(3,4)                  1.0134         estimate D2E/DX2                !
 ! A1    A(1,4,2)              108.3074         estimate D2E/DX2                !
 ! A2    A(1,4,3)              108.3074         estimate D2E/DX2                !
 ! A3    A(2,4,3)              108.3074         estimate D2E/DX2                !
 ! D1    D(1,4,3,2)            117.2562         estimate D2E/DX2                !
 --------------------------------------------------------------------------------
 Trust Radius=3.00D-01 FncErr=1.00D-07 GrdErr=1.00D-06 EigMax=2.50D+02 EigMin=1.00D-04
 Number of steps in this run=     20 maximum allowed number of steps=    100.
 GradGradGradGradGradGradGradGradGradGradGradGradGradGradGradGradGradGrad

                          Input orientation:                          
 ---------------------------------------------------------------------
 Center     Atomic      Atomic             Coordinates (Angstroms)
 Number     Number       Type             X           Y           Z
 ---------------------------------------------------------------------
      1          1           0        0.000000    0.948529   -0.249721
      2          1           0        0.821451   -0.474265   -0.249721
      3          1           0       -0.821451   -0.474265   -0.249721
      4          7           0        0.000000    0.000000    0.107023
 ---------------------------------------------------------------------
                    Distance matrix (angstroms):
                    1          2          3          4
     1  H    0.000000
     2  H    1.642901   0.000000
     3  H    1.642901   1.642902   0.000000
     4  N    1.013397   1.013398   1.013398   0.000000
 Stoichiometry    H3N
 Framework group  C3[C3(N),X(H3)]
 Deg. of freedom     2
 Full point group                 C3      NOp   3
 Largest Abelian subgroup         C1      NOp   1
 Largest concise Abelian subgroup C1      NOp   1
                         Standard orientation:                         
 ---------------------------------------------------------------------
 Center     Atomic      Atomic             Coordinates (Angstroms)
 Number     Number       Type             X           Y           Z
 ---------------------------------------------------------------------
      1          1           0        0.000000    0.948529   -0.249721
      2          1           0        0.821450   -0.474265   -0.249721
      3          1           0       -0.821450   -0.474265   -0.249721
      4          7           0       -0.000000   -0.000000    0.107023
 ---------------------------------------------------------------------
 Rotational constants (GHZ):         301.4344995         301.4344995         185.7845023
 Standard basis: 6-31++G(d,p) (6D, 7F)
 There are    37 symmetry adapted cartesian basis functions of A   symmetry.
 There are    37 symmetry adapted basis functions of A   symmetry.
    37 basis functions,    56 primitive gaussians,    37 cartesian basis functions
     5 alpha electrons        5 beta electrons
       nuclear repulsion energy        11.9321091217 Hartrees.
 NAtoms=    4 NActive=    4 NUniq=    2 SFac= 4.00D+00 NAtFMM=   60 NAOKFM=F Big=F
 Integral buffers will be    131072 words long.
 Raffenetti 2 integral format.
 Two-electron integral symmetry is turned on.
 Nuclear repulsion after empirical dispersion term =       11.9319822211 Hartrees.
 One-electron integrals computed using PRISM.
 NBasis=    37 RedAO= T EigKep=  1.06D-02  NBF=    37
 NBsUse=    37 1.00D-06 EigRej= -1.00D+00 NBFU=    37
 ExpMin= 3.60D-02 ExpMax= 4.17D+03 ExpMxC= 6.27D+02 IAcc=3 IRadAn=         5 AccDes= 0.00D+00
 Harris functional with IExCor= 4639 and IRadAn=       5 diagonalized for initial guess.
 HarFok:  IExCor= 4639 AccDes= 0.00D+00 IRadAn=         5 IDoV= 1 UseB2=F ITyADJ=14
 ICtDFT=  3500011 ScaDFX=  1.000000  1.000000  1.000000  1.000000
 FoFCou: FMM=F IPFlag=           0 FMFlag=      100000 FMFlg1=           0
         NFxFlg=           0 DoJE=T BraDBF=F KetDBF=T FulRan=T
         wScrn=  0.000000 ICntrl=       500 IOpCl=  0 I1Cent=   200000004 NGrid=           0
         NMat0=    1 NMatS0=      1 NMatT0=    0 NMatD0=    1 NMtDS0=    0 NMtDT0=    0
 Petite list used in FoFCou.
 Initial guess orbital symmetries:
       Occupied  (A) (A) (E) (E) (A)
       Virtual   (A) (E) (E) (A) (A) (E) (E) (E) (E) (A) (A) (E)
                 (E) (E) (E) (A) (A) (E) (E) (A) (A) (E) (E) (E)
                 (E) (A) (E) (E) (A) (E) (E) (A)
 The electronic state of the initial guess is 1-A.
 Keep R1 ints in memory in canonical form, NReq=7435721.
 Requested convergence on RMS density matrix=1.00D-08 within 128 cycles.
 Requested convergence on MAX density matrix=1.00D-06.
 Requested convergence on             energy=1.00D-06.
 No special actions if energy rises.
 SCF Done:  E(RwB97XD) =  -56.5464988629     A.U. after   10 cycles
            NFock= 10  Conv=0.20D-08     -V/T= 2.0101

 **********************************************************************

            Population analysis using the SCF Density.

 **********************************************************************

 Orbital symmetries:
       Occupied  (A) (A) (E) (E) (A)
       Virtual   (A) (E) (E) (A) (A) (E) (E) (E) (E) (A) (A) (E)
                 (E) (E) (E) (A) (A) (E) (E) (A) (A) (E) (E) (E)
                 (E) (A) (E) (E) (A) (E) (E) (A)
 The electronic state is 1-A.
 Alpha  occ. eigenvalues --  -14.43710  -0.95339  -0.55276  -0.55276  -0.34953
 Alpha virt. eigenvalues --    0.04147   0.07725   0.07725   0.18261   0.21713
 Alpha virt. eigenvalues --    0.23928   0.23928   0.29161   0.29161   0.36731
 Alpha virt. eigenvalues --    0.97057   0.99926   0.99926   1.01587   1.01587
 Alpha virt. eigenvalues --    1.17988   1.31568   1.49947   1.49947   1.95440
 Alpha virt. eigenvalues --    2.15967   2.34601   2.34601   2.49469   2.49469
 Alpha virt. eigenvalues --    2.85388   3.05703   3.05703   3.37169   3.53684
 Alpha virt. eigenvalues --    3.53684   4.13122
          Condensed to atoms (all electrons):
               1          2          3          4
     1  H    0.427198  -0.040233  -0.040233   0.362598
     2  H   -0.040233   0.427197  -0.040233   0.362598
     3  H   -0.040233  -0.040233   0.427197   0.362598
     4  N    0.362598   0.362598   0.362598   6.784223
 Mulliken charges:
               1
     1  H    0.290671
     2  H    0.290672
     3  H    0.290672
     4  N   -0.872016
 Sum of Mulliken charges =  -0.00000
 Mulliken charges with hydrogens summed into heavy atoms:
               1
     4  N   -0.000000
 Electronic spatial extent (au):  <R**2>=             27.0089
 Charge=              0.0000 electrons
 Dipole moment (field-independent basis, Debye):
    X=             -0.0000    Y=             -0.0000    Z=             -1.7863  Tot=              1.7863
 Quadrupole moment (field-independent basis, Debye-Ang):
   XX=             -6.1868   YY=             -6.1868   ZZ=             -9.7061
   XY=             -0.0000   XZ=             -0.0000   YZ=             -0.0000
 Traceless Quadrupole moment (field-independent basis, Debye-Ang):
   XX=              1.1731   YY=              1.1731   ZZ=             -2.3462
   XY=             -0.0000   XZ=             -0.0000   YZ=             -0.0000
 Octapole moment (field-independent basis, Debye-Ang**2):
  XXX=              0.0000  YYY=              0.9455  ZZZ=             -1.8718  XYY=              0.0000
  XXY=             -0.9455  XXZ=             -0.9725  XZZ=             -0.0000  YZZ=             -0.0000
  YYZ=             -0.9725  XYZ=              0.0000
 Hexadecapole moment (field-independent basis, Debye-Ang**3):
 XXXX=            -10.3360 YYYY=            -10.3360 ZZZZ=            -14.3582 XXXY=             -0.0000
 XXXZ=             -0.0000 YYYX=             -0.0000 YYYZ=             -0.3367 ZZZX=             -0.0000
 ZZZY=             -0.0000 XXYY=             -3.4453 XXZZ=             -4.2056 YYZZ=             -4.2056
 XXYZ=              0.3367 YYXZ=             -0.0000 ZZXY=             -0.0000
 N-N= 1.193198222111D+01 E-N=-1.555661563831D+02  KE= 5.598030651934D+01
 Calling FoFJK, ICntrl=      2127 FMM=F ISym2X=1 I1Cent= 0 IOpClX= 0 NMat=1 NMatS=1 NMatT=0.
 ***** Axes restored to original set *****
 -------------------------------------------------------------------
 Center     Atomic                   Forces (Hartrees/Bohr)
 Number     Number              X              Y              Z
 -------------------------------------------------------------------
      1        1          -0.000000562   -0.000057888    0.000031423
      2        1          -0.000048298    0.000028612    0.000027167
      3        1           0.000048859    0.000027639    0.000027167
      4        7           0.000000000    0.000001638   -0.000085757
 -------------------------------------------------------------------
 Cartesian Forces:  Max     0.000085757 RMS     0.000040285

 GradGradGradGradGradGradGradGradGradGradGradGradGradGradGradGradGradGrad
 Berny optimization.
 FormGI is forming the generalized inverse of G from B-inverse, IUseBI=4.
 Internal  Forces:  Max     0.000064647 RMS     0.000041689
 Search for a local minimum.
 Step number   1 out of a maximum of   20
 All quantities printed in internal units (Hartrees-Bohrs-Radians)
 Mixed Optimization -- En-DIIS/RFO-DIIS
 Second derivative matrix not updated -- first step.
 The second derivative matrix:
                          R1        R2        R3        A1        A2
           R1           0.45408
           R2           0.00000   0.45408
           R3           0.00000   0.00000   0.45408
           A1           0.00000   0.00000   0.00000   0.16000
           A2           0.00000   0.00000   0.00000   0.00000   0.16000
           A3           0.00000   0.00000   0.00000   0.00000   0.00000
           D1           0.00000   0.00000   0.00000   0.00000   0.00000
                          A3        D1
           A3           0.16000
           D1           0.00000   0.00851
 ITU=  0
     Eigenvalues ---    0.05913   0.16000   0.16000   0.45408   0.45408
     Eigenvalues ---    0.45408
 RFO step:  Lambda=-2.90366987D-08 EMin= 5.91287598D-02
 Linear search not attempted -- first point.
 Iteration  1 RMS(Cart)=  0.00007869 RMS(Int)=  0.00000001
 Iteration  2 RMS(Cart)=  0.00000001 RMS(Int)=  0.00000000
 ClnCor:  largest displacement from symmetrization is 5.73D-06 for atom     2.
 Variable       Old X    -DE/DX   Delta X   Delta X   Delta X     New X
                                 (Linear)    (Quad)   (Total)
    R1        1.91504  -0.00006   0.00000  -0.00014  -0.00014   1.91490
    R2        1.91504  -0.00006   0.00000  -0.00014  -0.00014   1.91490
    R3        1.91504  -0.00006   0.00000  -0.00014  -0.00014   1.91490
    A1        1.89032   0.00000   0.00000   0.00007   0.00007   1.89039
    A2        1.89032   0.00001   0.00000   0.00007   0.00007   1.89039
    A3        1.89032   0.00001   0.00000   0.00007   0.00007   1.89039
    D1        2.04651   0.00001   0.00000   0.00016   0.00016   2.04667
         Item               Value     Threshold  Converged?
 Maximum Force            0.000065     0.000450     YES
 RMS     Force            0.000042     0.000300     YES
 Maximum Displacement     0.000129     0.001800     YES
 RMS     Displacement     0.000080     0.001200     YES
 Predicted change in Energy=-1.450988D-08
 Optimization completed.
    -- Stationary point found.
                           ----------------------------
                           !   Optimized Parameters   !
                           ! (Angstroms and Degrees)  !
 --------------------------                            --------------------------
 ! Name  Definition              Value          Derivative Info.                !
 --------------------------------------------------------------------------------
 ! R1    R(1,4)                  1.0134         -DE/DX =   -0.0001              !
 ! R2    R(2,4)                  1.0134         -DE/DX =   -0.0001              !
 ! R3    R(3,4)                  1.0134         -DE/DX =   -0.0001              !
 ! A1    A(1,4,2)              108.3074         -DE/DX =    0.0                 !
 ! A2    A(1,4,3)              108.3074         -DE/DX =    0.0                 !
 ! A3    A(2,4,3)              108.3074         -DE/DX =    0.0                 !
 ! D1    D(1,4,3,2)            117.2562         -DE/DX =    0.0                 !
 --------------------------------------------------------------------------------
 GradGradGradGradGradGradGradGradGradGradGradGradGradGradGradGradGradGrad

                          Input orientation:                          
 ---------------------------------------------------------------------
 Center     Atomic      Atomic             Coordinates (Angstroms)
 Number     Number       Type             X           Y           Z
 ---------------------------------------------------------------------
      1          1           0        0.000000    0.948529   -0.249721
      2          1           0        0.821450   -0.474265   -0.249721
      3          1           0       -0.821450   -0.474265   -0.249721
      4          7           0       -0.000000   -0.000000    0.107023
 ---------------------------------------------------------------------
                    Distance matrix (angstroms):
                    1          2          3          4
     1  H    0.000000
     2  H    1.642901   0.000000
     3  H    1.642901   1.642901   0.000000
     4  N    1.013397   1.013397   1.013397   0.000000
 Stoichiometry    H3N
 Framework group  C3V[C3(N),3SGV(H)]
 Deg. of freedom     2
 Full point group                 C3V     NOp   6
 Omega: Change in point group or standard orientation.

 Old FWG=C03  [C3(N1),X(H3)]
 New FWG=C03V [C3(N1),3SGV(H1)]
 Largest Abelian subgroup         CS      NOp   2
 Largest concise Abelian subgroup CS      NOp   2
                         Standard orientation:                         
 ---------------------------------------------------------------------
 Center     Atomic      Atomic             Coordinates (Angstroms)
 Number     Number       Type             X           Y           Z
 ---------------------------------------------------------------------
      1          1           0       -0.000000    0.948529   -0.249721
      2          1           0        0.821450   -0.474265   -0.249721
      3          1           0       -0.821450   -0.474265   -0.249721
      4          7           0        0.000000    0.000000    0.107023
 ---------------------------------------------------------------------
 Rotational constants (GHZ):         301.4344995         301.4344995         185.7845023
 Unable to Open any file for archive entry.
 1\1\GINC-R17C22\FOpt\RwB97XD\6-31++G(d,p)\H3N1\KUBECKAJ\04-May-2022\0\
 \# wb97xd 6-31++g** opt freq Temperature=298.15\\1am.xyz\\0,1\H,0.,0.9
 48529,-0.249721\H,0.8214502968,-0.47426465,-0.249721\H,-0.8214502968,-
 0.47426465,-0.249721\N,0.,-0.0000001,0.107023\\Version=ES64L-G16RevC.0
 1\State=1-A\HF=-56.5464989\RMSD=1.975e-09\RMSF=4.028e-05\Dipole=0.,-0.
 0000004,-0.7028038\Quadrupole=0.8721687,0.8721692,-1.7443378,0.,0.,-0.
 0000008\PG=C03V [C3(N1),3SGV(H1)]\\@
 The archive entry for this job was punched.


 Human beings, who are almost unique in having the
 ability to learn from the experience of others, are
 also remarkable for their apparent disinclination to do so.
                               -- Douglas Adams,
                                Last Chance to See
 Job cpu time:       0 days  0 hours  0 minutes 12.6 seconds.
 Elapsed time:       0 days  0 hours  0 minutes  2.0 seconds.
 File lengths (MBytes):  RWF=      6 Int=      0 D2E=      0 Chk=      1 Scr=      1
 Normal termination of Gaussian 16 at Wed May  4 01:12:57 2022.
 Link1:  Proceeding to internal job step number  2.
 ----------------------------------------------------------------------
 #N Geom=AllCheck Guess=TCheck SCRF=Check GenChk RwB97XD/6-31++G(d,p) F
 req
 ----------------------------------------------------------------------
 1/10=4,29=7,30=1,38=1,40=1,112=298150/1,3;
 2/12=2,40=1/2;
 3/5=1,6=6,7=1111,11=2,14=-4,25=1,30=1,70=2,71=2,74=-58,116=1,140=1/1,2,3;
 4/5=101/1;
 5/5=2,38=6,98=1/2;
 8/6=4,10=90,11=11/1;
 11/6=1,8=1,9=11,15=111,16=1/1,2,10;
 10/6=1/2;
 6/7=2,8=2,9=2,10=2,28=1/1;
 7/8=1,10=1,25=1/1,2,3,16;
 1/10=4,30=1/3;
 99//99;
 Structure from the checkpoint file:  "/scratch/hvehkama/kubeckaj/OTHERS/ACDB/monomers/DFT_freq/calc-LM/TMP/G1611631856_1am/Gau-232001.chk"
 -------
 1am.xyz
 -------
 Charge =  0 Multiplicity = 1
 Redundant internal coordinates found in file.  (old form).
 H,0,0.,0.948529,-0.249721
 H,0,0.8214502968,-0.47426465,-0.249721
 H,0,-0.8214502968,-0.47426465,-0.249721
 N,0,0.,-0.0000001,0.107023
 Recover connectivity data from disk.

 GradGradGradGradGradGradGradGradGradGradGradGradGradGradGradGradGradGrad
 Berny optimization.
 Initialization pass.
                           ----------------------------
                           !    Initial Parameters    !
                           ! (Angstroms and Degrees)  !
 --------------------------                            --------------------------
 ! Name  Definition              Value          Derivative Info.                !
 --------------------------------------------------------------------------------
 ! R1    R(1,4)                  1.0134         calculate D2E/DX2 analytically  !
 ! R2    R(2,4)                  1.0134         calculate D2E/DX2 analytically  !
 ! R3    R(3,4)                  1.0134         calculate D2E/DX2 analytically  !
 ! A1    A(1,4,2)              108.3074         calculate D2E/DX2 analytically  !
 ! A2    A(1,4,3)              108.3074         calculate D2E/DX2 analytically  !
 ! A3    A(2,4,3)              108.3074         calculate D2E/DX2 analytically  !
 ! D1    D(1,4,3,2)            117.2562         calculate D2E/DX2 analytically  !
 --------------------------------------------------------------------------------
 Trust Radius=3.00D-01 FncErr=1.00D-07 GrdErr=1.00D-07 EigMax=2.50D+02 EigMin=1.00D-04
 Number of steps in this run=      2 maximum allowed number of steps=      2.
 GradGradGradGradGradGradGradGradGradGradGradGradGradGradGradGradGradGrad

                          Input orientation:                          
 ---------------------------------------------------------------------
 Center     Atomic      Atomic             Coordinates (Angstroms)
 Number     Number       Type             X           Y           Z
 ---------------------------------------------------------------------
      1          1           0        0.000000    0.948529   -0.249721
      2          1           0        0.821450   -0.474265   -0.249721
      3          1           0       -0.821450   -0.474265   -0.249721
      4          7           0       -0.000000   -0.000000    0.107023
 ---------------------------------------------------------------------
                    Distance matrix (angstroms):
                    1          2          3          4
     1  H    0.000000
     2  H    1.642901   0.000000
     3  H    1.642901   1.642901   0.000000
     4  N    1.013397   1.013397   1.013397   0.000000
 Stoichiometry    H3N
 Framework group  C3V[C3(N),3SGV(H)]
 Deg. of freedom     2
 Full point group                 C3V     NOp   6
 Largest Abelian subgroup         CS      NOp   2
 Largest concise Abelian subgroup CS      NOp   2
                         Standard orientation:                         
 ---------------------------------------------------------------------
 Center     Atomic      Atomic             Coordinates (Angstroms)
 Number     Number       Type             X           Y           Z
 ---------------------------------------------------------------------
      1          1           0       -0.000000    0.948529   -0.249721
      2          1           0        0.821450   -0.474265   -0.249721
      3          1           0       -0.821450   -0.474265   -0.249721
      4          7           0        0.000000    0.000000    0.107023
 ---------------------------------------------------------------------
 Rotational constants (GHZ):         301.4344995         301.4344995         185.7845023
 Standard basis: 6-31++G(d,p) (6D, 7F)
 There are    25 symmetry adapted cartesian basis functions of A'  symmetry.
 There are    12 symmetry adapted cartesian basis functions of A"  symmetry.
 There are    25 symmetry adapted basis functions of A'  symmetry.
 There are    12 symmetry adapted basis functions of A"  symmetry.
    37 basis functions,    56 primitive gaussians,    37 cartesian basis functions
     5 alpha electrons        5 beta electrons
       nuclear repulsion energy        11.9321091217 Hartrees.
 NAtoms=    4 NActive=    4 NUniq=    2 SFac= 4.00D+00 NAtFMM=   60 NAOKFM=F Big=F
 Integral buffers will be    131072 words long.
 Raffenetti 2 integral format.
 Two-electron integral symmetry is turned on.
 Nuclear repulsion after empirical dispersion term =       11.9319822211 Hartrees.
 One-electron integrals computed using PRISM.
 NBasis=    37 RedAO= T EigKep=  1.06D-02  NBF=    25    12
 NBsUse=    37 1.00D-06 EigRej= -1.00D+00 NBFU=    25    12
 Initial guess from the checkpoint file:  "/scratch/hvehkama/kubeckaj/OTHERS/ACDB/monomers/DFT_freq/calc-LM/TMP/G1611631856_1am/Gau-232001.chk"
 B after Tr=     0.000000   -0.000000    0.000000
         Rot=    1.000000    0.000000    0.000000   -0.000000 Ang=   0.00 deg.
 Initial guess orbital symmetries:
       Occupied  (A1) (A1) (E) (E) (A1)
       Virtual   (A1) (E) (E) (A1) (A1) (E) (E) (E) (E) (A1) (A1)
                 (E) (E) (E) (E) (A1) (A1) (E) (E) (A1) (A2) (E)
                 (E) (E) (E) (A1) (E) (E) (A1) (E) (E) (A1)
 Keep R1 ints in memory in symmetry-blocked form, NReq=7437661.
 Requested convergence on RMS density matrix=1.00D-08 within 128 cycles.
 Requested convergence on MAX density matrix=1.00D-06.
 Requested convergence on             energy=1.00D-06.
 No special actions if energy rises.
 SCF Done:  E(RwB97XD) =  -56.5464986382     A.U. after    2 cycles
            NFock=  2  Conv=0.56D-08     -V/T= 2.0101
 DoSCS=F DFT=T ScalE2(SS,OS)=  1.000000  1.000000
 Range of M.O.s used for correlation:     1    37
 NBasis=    37 NAE=     5 NBE=     5 NFC=     0 NFV=     0
 NROrb=     37 NOA=     5 NOB=     5 NVA=    32 NVB=    32
 Symmetrizing basis deriv contribution to polar:
 IMax=3 JMax=2 DiffMx= 0.00D+00
 G2DrvN: will do     5 centers at a time, making    1 passes.
 Calling FoFCou, ICntrl=  3107 FMM=F I1Cent=   0 AccDes= 0.00D+00.
 End of G2Drv F.D. properties file   721 does not exist.
 End of G2Drv F.D. properties file   722 does not exist.
 End of G2Drv F.D. properties file   788 does not exist.
          IDoAtm=1111
          Differentiating once with respect to electric field.
                with respect to dipole field.
          Differentiating once with respect to nuclear coordinates.
 Keep R1 ints in memory in symmetry-blocked form, NReq=7413407.
          There are     9 degrees of freedom in the 1st order CPHF.  IDoFFX=4 NUNeed=     9.
      9 vectors produced by pass  0 Test12= 1.78D-15 1.11D-08 XBig12= 3.44D+00 1.13D+00.
 AX will form     9 AO Fock derivatives at one time.
      9 vectors produced by pass  1 Test12= 1.78D-15 1.11D-08 XBig12= 3.17D-01 2.63D-01.
      9 vectors produced by pass  2 Test12= 1.78D-15 1.11D-08 XBig12= 8.98D-03 4.37D-02.
      9 vectors produced by pass  3 Test12= 1.78D-15 1.11D-08 XBig12= 3.75D-05 2.13D-03.
      9 vectors produced by pass  4 Test12= 1.78D-15 1.11D-08 XBig12= 2.76D-07 2.11D-04.
      9 vectors produced by pass  5 Test12= 1.78D-15 1.11D-08 XBig12= 9.40D-10 9.74D-06.
      5 vectors produced by pass  6 Test12= 1.78D-15 1.11D-08 XBig12= 2.37D-12 4.96D-07.
      2 vectors produced by pass  7 Test12= 1.78D-15 1.11D-08 XBig12= 8.91D-15 3.46D-08.
 InvSVY:  IOpt=1 It=  1 EMax= 4.44D-16
 Solved reduced A of dimension    61 with     9 vectors.
 Isotropic polarizability for W=    0.000000       10.88 Bohr**3.
 End of Minotr F.D. properties file   721 does not exist.
 End of Minotr F.D. properties file   722 does not exist.
 End of Minotr F.D. properties file   788 does not exist.

 **********************************************************************

            Population analysis using the SCF Density.

 **********************************************************************

 Orbital symmetries:
       Occupied  (A1) (A1) (E) (E) (A1)
       Virtual   (A1) (E) (E) (A1) (A1) (E) (E) (E) (E) (A1) (A1)
                 (E) (E) (E) (E) (A1) (A1) (E) (E) (A1) (A2) (E)
                 (E) (E) (E) (A1) (E) (E) (A1) (E) (E) (A1)
 The electronic state is 1-A1.
 Alpha  occ. eigenvalues --  -14.43710  -0.95339  -0.55276  -0.55276  -0.34953
 Alpha virt. eigenvalues --    0.04147   0.07725   0.07725   0.18261   0.21713
 Alpha virt. eigenvalues --    0.23928   0.23928   0.29161   0.29161   0.36731
 Alpha virt. eigenvalues --    0.97057   0.99926   0.99926   1.01587   1.01587
 Alpha virt. eigenvalues --    1.17988   1.31568   1.49947   1.49947   1.95440
 Alpha virt. eigenvalues --    2.15967   2.34601   2.34601   2.49469   2.49469
 Alpha virt. eigenvalues --    2.85388   3.05703   3.05703   3.37169   3.53684
 Alpha virt. eigenvalues --    3.53684   4.13122
          Condensed to atoms (all electrons):
               1          2          3          4
     1  H    0.427197  -0.040233  -0.040233   0.362598
     2  H   -0.040233   0.427197  -0.040233   0.362598
     3  H   -0.040233  -0.040233   0.427197   0.362598
     4  N    0.362598   0.362598   0.362598   6.784223
 Mulliken charges:
               1
     1  H    0.290672
     2  H    0.290672
     3  H    0.290672
     4  N   -0.872016
 Sum of Mulliken charges =   0.00000
 Mulliken charges with hydrogens summed into heavy atoms:
               1
     4  N    0.000000
 APT charges:
               1
     1  H    0.180162
     2  H    0.180234
     3  H    0.180234
     4  N   -0.540775
 Sum of APT charges =  -0.00014
 APT charges with hydrogens summed into heavy atoms:
               1
     4  N   -0.000145
 Electronic spatial extent (au):  <R**2>=             27.0089
 Charge=             -0.0000 electrons
 Dipole moment (field-independent basis, Debye):
    X=             -0.0000    Y=             -0.0000    Z=             -1.7863  Tot=              1.7863
 Quadrupole moment (field-independent basis, Debye-Ang):
   XX=             -6.1868   YY=             -6.1868   ZZ=             -9.7061
   XY=             -0.0000   XZ=              0.0000   YZ=              0.0000
 Traceless Quadrupole moment (field-independent basis, Debye-Ang):
   XX=              1.1731   YY=              1.1731   ZZ=             -2.3462
   XY=             -0.0000   XZ=              0.0000   YZ=              0.0000
 Octapole moment (field-independent basis, Debye-Ang**2):
  XXX=             -0.0000  YYY=              0.9455  ZZZ=             -1.8718  XYY=              0.0000
  XXY=             -0.9455  XXZ=             -0.9725  XZZ=              0.0000  YZZ=              0.0000
  YYZ=             -0.9725  XYZ=              0.0000
 Hexadecapole moment (field-independent basis, Debye-Ang**3):
 XXXX=            -10.3360 YYYY=            -10.3360 ZZZZ=            -14.3582 XXXY=              0.0000
 XXXZ=              0.0000 YYYX=             -0.0000 YYYZ=             -0.3367 ZZZX=             -0.0000
 ZZZY=             -0.0000 XXYY=             -3.4453 XXZZ=             -4.2056 YYZZ=             -4.2056
 XXYZ=              0.3367 YYXZ=             -0.0000 ZZXY=              0.0000
 N-N= 1.193198222111D+01 E-N=-1.555661567568D+02  KE= 5.598030701040D+01
 Symmetry A'   KE= 5.332990053058D+01
 Symmetry A"   KE= 2.650406479821D+00
  Exact polarizability:      10.466      -0.000      10.466       0.000       0.001      11.706
 Approx polarizability:       9.932      -0.000       9.932       0.000       0.000       9.353
 Calling FoFJK, ICntrl=    100127 FMM=F ISym2X=1 I1Cent= 0 IOpClX= 0 NMat=1 NMatS=1 NMatT=0.
 Full mass-weighted force constant matrix:
 Low frequencies ---  -32.3973  -32.3931   -1.2940   -0.0197    0.3676   27.2821
 Low frequencies ---  999.1364 1680.4324 1680.4324
 Diagonal vibrational polarizability:
        0.3096587       0.3101751       6.8645264
 Harmonic frequencies (cm**-1), IR intensities (KM/Mole), Raman scattering
 activities (A**4/AMU), depolarization ratios for plane and unpolarized
 incident light, reduced masses (AMU), force constants (mDyne/A),
 and normal coordinates:
                      1                      2                      3
                     A1                      E                      E
 Frequencies --    999.1364              1680.4324              1680.4324
 Red. masses --      1.1838                 1.0685                 1.0685
 Frc consts  --      0.6963                 1.7777                 1.7777
 IR Inten    --    254.5375                31.5919                31.5375
  Atom  AN      X      Y      Z        X      Y      Z        X      Y      Z
     1   1     0.00   0.20   0.54    -0.00  -0.13  -0.24     0.77  -0.00  -0.00
     2   1     0.17  -0.10   0.54     0.39   0.54   0.12     0.09   0.39  -0.21
     3   1    -0.17  -0.10   0.54    -0.39   0.54   0.12     0.09  -0.39   0.21
     4   7    -0.00  -0.00  -0.12     0.00  -0.07   0.00    -0.07  -0.00   0.00
                      4                      5                      6
                     A1                      E                      E
 Frequencies --   3532.9323              3685.9259              3685.9313
 Red. masses --      1.0243                 1.0918                 1.0918
 Frc consts  --      7.5330                 8.7394                 8.7394
 IR Inten    --      1.2845                 4.5978                 4.5967
  Atom  AN      X      Y      Z        X      Y      Z        X      Y      Z
     1   1     0.00   0.55  -0.17    -0.02   0.00  -0.00     0.00   0.76  -0.28
     2   1     0.48  -0.28  -0.17     0.57  -0.34  -0.24    -0.34   0.18   0.14
     3   1    -0.48  -0.28  -0.17     0.57   0.34   0.24     0.34   0.18   0.14
     4   7     0.00   0.00   0.04    -0.08  -0.00   0.00     0.00  -0.08   0.00

 -------------------
 - Thermochemistry -
 -------------------
 Temperature   298.150 Kelvin.  Pressure   1.00000 Atm.
 Atom     1 has atomic number  1 and mass   1.00783
 Atom     2 has atomic number  1 and mass   1.00783
 Atom     3 has atomic number  1 and mass   1.00783
 Atom     4 has atomic number  7 and mass  14.00307
 Molecular mass:    17.02655 amu.
 Principal axes and moments of inertia in atomic units:
                           1         2         3
     Eigenvalues --     5.98718   5.98718   9.71416
           X           -0.41591   0.90941   0.00000
           Y            0.90941   0.41591   0.00000
           Z           -0.00000  -0.00000   1.00000
 This molecule is an oblate symmetric top.
 Rotational symmetry number  3.
 Rotational temperatures (Kelvin)     14.46658    14.46658     8.91625
 Rotational constants (GHZ):         301.43450   301.43450   185.78450
 Zero-point vibrational energy      91303.7 (Joules/Mol)
                                   21.82211 (Kcal/Mol)
 Vibrational temperatures:   1437.53  2417.77  2417.77  5083.10  5303.23
          (Kelvin)           5303.23
 
 Zero-point correction=                           0.034776 (Hartree/Particle)
 Thermal correction to Energy=                    0.037650
 Thermal correction to Enthalpy=                  0.038594
 Thermal correction to Gibbs Free Energy=         0.016747
 Sum of electronic and zero-point Energies=            -56.511723
 Sum of electronic and thermal Energies=               -56.508849
 Sum of electronic and thermal Enthalpies=             -56.507905
 Sum of electronic and thermal Free Energies=          -56.529751
 
                     E (Thermal)             CV                S
                      KCal/Mol        Cal/Mol-Kelvin    Cal/Mol-Kelvin
 Total                   23.626              6.418             45.981
 Electronic               0.000              0.000              0.000
 Translational            0.889              2.981             34.441
 Rotational               0.889              2.981             11.435
 Vibrational             21.848              0.457              0.105
                       Q            Log10(Q)             Ln(Q)
 Total Bot       0.198082D-07         -7.703155        -17.737170
 Total V=0       0.196140D+09          8.292566         19.094340
 Vib (Bot)       0.101871D-15        -15.991948        -36.822821
 Vib (V=0)       0.100873D+01          0.003774          0.008689
 Electronic      0.100000D+01          0.000000          0.000000
 Translational   0.276149D+07          6.441144         14.831282
 Rotational      0.704124D+02          1.847649          4.254369
 ***** Axes restored to original set *****
 -------------------------------------------------------------------
 Center     Atomic                   Forces (Hartrees/Bohr)
 Number     Number              X              Y              Z
 -------------------------------------------------------------------
      1        1           0.000000000   -0.000055833    0.000027103
      2        1          -0.000048353    0.000027916    0.000027103
      3        1           0.000048353    0.000027916    0.000027103
      4        7           0.000000000   -0.000000000   -0.000081310
 -------------------------------------------------------------------
 Cartesian Forces:  Max     0.000081310 RMS     0.000038909
 FormGI is forming the generalized inverse of G from B-inverse, IUseBI=4.

 GradGradGradGradGradGradGradGradGradGradGradGradGradGradGradGradGradGrad
 Berny optimization.
 Internal  Forces:  Max     0.000061800 RMS     0.000040706
 Search for a local minimum.
 Step number   1 out of a maximum of    2
 All quantities printed in internal units (Hartrees-Bohrs-Radians)
 Second derivative matrix not updated -- analytic derivatives used.
 The second derivative matrix:
                          R1        R2        R3        A1        A2
           R1           0.47197
           R2          -0.00322   0.47196
           R3          -0.00322  -0.00322   0.47196
           A1           0.00721   0.00721  -0.00845   0.05633
           A2           0.01774  -0.00325   0.02019  -0.04394   0.12701
           A3          -0.00324   0.01774   0.02019  -0.04394  -0.02386
           D1           0.01640   0.01640   0.01190   0.01906   0.00391
                          A3        D1
           A3           0.12701
           D1           0.00390   0.02682
 ITU=  0
     Eigenvalues ---    0.03723   0.14412   0.14951   0.46914   0.47651
     Eigenvalues ---    0.47654
 Angle between quadratic step and forces=  55.24 degrees.
 Linear search not attempted -- first point.
 Iteration  1 RMS(Cart)=  0.00011548 RMS(Int)=  0.00000004
 Iteration  2 RMS(Cart)=  0.00000003 RMS(Int)=  0.00000003
 ClnCor:  largest displacement from symmetrization is 9.84D-09 for atom     3.
 Variable       Old X    -DE/DX   Delta X   Delta X   Delta X     New X
                                 (Linear)    (Quad)   (Total)
    R1        1.91504  -0.00006   0.00000  -0.00015  -0.00015   1.91489
    R2        1.91504  -0.00006   0.00000  -0.00015  -0.00015   1.91489
    R3        1.91504  -0.00006   0.00000  -0.00015  -0.00015   1.91489
    A1        1.89032   0.00000   0.00000   0.00017   0.00017   1.89049
    A2        1.89032   0.00001   0.00000   0.00017   0.00017   1.89049
    A3        1.89032   0.00001   0.00000   0.00017   0.00017   1.89049
    D1        2.04651   0.00001   0.00000   0.00038   0.00038   2.04689
         Item               Value     Threshold  Converged?
 Maximum Force            0.000062     0.000450     YES
 RMS     Force            0.000041     0.000300     YES
 Maximum Displacement     0.000259     0.001800     YES
 RMS     Displacement     0.000115     0.001200     YES
 Predicted change in Energy=-1.696545D-08
 Optimization completed.
    -- Stationary point found.
                           ----------------------------
                           !   Optimized Parameters   !
                           ! (Angstroms and Degrees)  !
 --------------------------                            --------------------------
 ! Name  Definition              Value          Derivative Info.                !
 --------------------------------------------------------------------------------
 ! R1    R(1,4)                  1.0134         -DE/DX =   -0.0001              !
 ! R2    R(2,4)                  1.0134         -DE/DX =   -0.0001              !
 ! R3    R(3,4)                  1.0134         -DE/DX =   -0.0001              !
 ! A1    A(1,4,2)              108.3074         -DE/DX =    0.0                 !
 ! A2    A(1,4,3)              108.3074         -DE/DX =    0.0                 !
 ! A3    A(2,4,3)              108.3074         -DE/DX =    0.0                 !
 ! D1    D(1,4,3,2)            117.2562         -DE/DX =    0.0                 !
 --------------------------------------------------------------------------------
 GradGradGradGradGradGradGradGradGradGradGradGradGradGradGradGradGradGrad


 ----------------------------------------------------------------------

 Electric dipole moment (input orientation):
 (Debye = 10**-18 statcoulomb cm , SI units = C m)
                  (au)            (Debye)         (10**-30 SI)
   Tot        0.702804D+00      0.178635D+01      0.595862D+01
   x          0.000000D+00      0.000000D+00      0.000000D+00
   y          0.000000D+00      0.000000D+00      0.000000D+00
   z         -0.702804D+00     -0.178635D+01     -0.595862D+01

 Dipole polarizability, Alpha (input orientation).
 (esu units = cm**3 , SI units = C**2 m**2 J**-1)
 Alpha(0;0):
               (au)            (10**-24 esu)      (10**-40 SI)
   iso        0.108792D+02      0.161214D+01      0.179374D+01
   aniso      0.123948D+01      0.183671D+00      0.204362D+00
   xx         0.104661D+02      0.155092D+01      0.172563D+01
   yx         0.000000D+00      0.000000D+00      0.000000D+00
   yy         0.104660D+02      0.155091D+01      0.172562D+01
   zx         0.000000D+00      0.000000D+00      0.000000D+00
   zy         0.100045D-02      0.148252D-03      0.164952D-03
   zz         0.117055D+02      0.173458D+01      0.192998D+01

 ----------------------------------------------------------------------

 Dipole orientation:
     1          0.00000000         -1.79246003          0.47190430
     1          1.55231609          0.89623030          0.47190430
     1         -1.55231609          0.89623030          0.47190430
     7         -0.00000000          0.00000019         -0.20224416

 Electric dipole moment (dipole orientation):
 (Debye = 10**-18 statcoulomb cm , SI units = C m)
                  (au)            (Debye)         (10**-30 SI)
   Tot        0.702804D+00      0.178635D+01      0.595862D+01
   x          0.000000D+00      0.000000D+00      0.000000D+00
   y          0.000000D+00      0.000000D+00      0.000000D+00
   z          0.702804D+00      0.178635D+01      0.595862D+01

 Dipole polarizability, Alpha (dipole orientation).
 (esu units = cm**3 , SI units = C**2 m**2 J**-1)
 Alpha(0;0):
               (au)            (10**-24 esu)      (10**-40 SI)
   iso        0.108792D+02      0.161214D+01      0.179374D+01
   aniso      0.123948D+01      0.183671D+00      0.204362D+00
   xx         0.104661D+02      0.155092D+01      0.172563D+01
   yx         0.000000D+00      0.000000D+00      0.000000D+00
   yy         0.104660D+02      0.155091D+01      0.172562D+01
   zx         0.000000D+00      0.000000D+00      0.000000D+00
   zy         0.100045D-02      0.148252D-03      0.164952D-03
   zz         0.117055D+02      0.173458D+01      0.192998D+01

 ----------------------------------------------------------------------
 Unable to Open any file for archive entry.
 1\1\GINC-R17C22\Freq\RwB97XD\6-31++G(d,p)\H3N1\KUBECKAJ\04-May-2022\0\
 \#N Geom=AllCheck Guess=TCheck SCRF=Check GenChk RwB97XD/6-31++G(d,p) 
 Freq\\1am.xyz\\0,1\H,0.,0.948529,-0.249721\H,0.8214502968,-0.47426465,
 -0.249721\H,-0.8214502968,-0.47426465,-0.249721\N,0.,-0.0000001,0.1070
 23\\Version=ES64L-G16RevC.01\State=1-A1\HF=-56.5464986\RMSD=5.555e-09\
 RMSF=3.891e-05\ZeroPoint=0.0347758\Thermal=0.0376499\ETot=-56.5088488\
 HTot=-56.5079046\GTot=-56.5297515\Dipole=0.,0.,-0.7028038\DipoleDeriv=
 0.1988683,0.,0.,0.,0.0925032,0.1126081,0.,0.1516767,0.2491145,0.119169
 ,0.0460197,0.0975522,0.0460036,0.1723891,-0.0562962,0.1314211,-0.07582
 62,0.2491448,0.119169,-0.0460197,-0.0975522,-0.0460036,0.1723891,-0.05
 62962,-0.1314211,-0.0758262,0.2491448,-0.4373555,0.,0.,0.,-0.4375054,-
 0.0000316,0.,-0.0000484,-0.7474648\Polar=10.4661072,0.,10.4660413,0.,0
 .0010005,11.7055484\Quadrupole=0.8721691,0.8721691,-1.7443383,0.,0.,0.
 \PG=C03V [C3(N1),3SGV(H1)]\NImag=0\\0.06000984,0.,0.42536610,0.,-0.138
 41008,0.06541423,0.00183731,-0.00420841,0.00192449,0.33402703,0.033569
 57,-0.01511436,-0.01707075,-0.15820390,0.15134890,-0.01382146,0.010202
 03,0.00057131,-0.11986664,0.06920504,0.06541423,0.00183731,0.00420841,
 -0.00192449,-0.02359020,-0.01888899,-0.01574594,0.33402703,-0.03356957
 ,-0.01511436,-0.01707075,0.01888899,0.01031315,0.00686872,0.15820390,0
 .15134890,0.01382146,0.01020203,0.00057131,0.01574594,0.00686872,0.000
 57131,0.11986664,0.06920504,0.06541423,-0.06369081,0.,0.,-0.31226209,0
 .14351829,0.14942935,-0.31226209,-0.14351829,-0.14942935,0.68819722,0.
 ,-0.39513103,0.17254957,0.14351768,-0.14654737,-0.08627354,-0.14351768
 ,-0.14654737,-0.08627354,0.,0.68821877,0.,0.11800228,-0.06655685,0.102
 19281,-0.05899989,-0.06655396,-0.10219281,-0.05899989,-0.06655396,0.,-
 0.00000499,0.19965897\\0.,0.00005583,-0.00002710,0.00004835,-0.0000279
 2,-0.00002710,-0.00004835,-0.00002792,-0.00002710,0.,0.,0.00008131\\\@
 The archive entry for this job was punched.


 EXPERIENCE IS THE FRUIT OF THE TREE OF ERRORS.
 Job cpu time:       0 days  0 hours  0 minutes 20.2 seconds.
 Elapsed time:       0 days  0 hours  0 minutes  3.1 seconds.
 File lengths (MBytes):  RWF=      6 Int=      0 D2E=      0 Chk=      1 Scr=      1
 Normal termination of Gaussian 16 at Wed May  4 01:13:00 2022.
