 Entering Gaussian System, Link 0=/appl/soft/chem/gaussian/G16RevC.01//g16/g16
 Initial command:
 /appl/soft/chem/gaussian/G16RevC.01//g16/l1.exe "/scratch/hvehkama/kubeckaj/OTHERS/ACDB/monomers/DFT_freq/calc-LM/TMP/G1611637748_1dma/Gau-59036.inp" -scrdir="/scratch/hvehkama/kubeckaj/OTHERS/ACDB/monomers/DFT_freq/calc-LM/TMP/G1611637748_1dma/"
 Entering Link 1 = /appl/soft/chem/gaussian/G16RevC.01//g16/l1.exe PID=     59037.
  
 Copyright (c) 1988-2019, Gaussian, Inc.  All Rights Reserved.
  
 This is part of the Gaussian(R) 16 program.  It is based on
 the Gaussian(R) 09 system (copyright 2009, Gaussian, Inc.),
 the Gaussian(R) 03 system (copyright 2003, Gaussian, Inc.),
 the Gaussian(R) 98 system (copyright 1998, Gaussian, Inc.),
 the Gaussian(R) 94 system (copyright 1995, Gaussian, Inc.),
 the Gaussian 92(TM) system (copyright 1992, Gaussian, Inc.),
 the Gaussian 90(TM) system (copyright 1990, Gaussian, Inc.),
 the Gaussian 88(TM) system (copyright 1988, Gaussian, Inc.),
 the Gaussian 86(TM) system (copyright 1986, Carnegie Mellon
 University), and the Gaussian 82(TM) system (copyright 1983,
 Carnegie Mellon University). Gaussian is a federally registered
 trademark of Gaussian, Inc.
  
 This software contains proprietary and confidential information,
 including trade secrets, belonging to Gaussian, Inc.
  
 This software is provided under written license and may be
 used, copied, transmitted, or stored only in accord with that
 written license.
  
 The following legend is applicable only to US Government
 contracts under FAR:
  
                    RESTRICTED RIGHTS LEGEND
  
 Use, reproduction and disclosure by the US Government is
 subject to restrictions as set forth in subparagraphs (a)
 and (c) of the Commercial Computer Software - Restricted
 Rights clause in FAR 52.227-19.
  
 Gaussian, Inc.
 340 Quinnipiac St., Bldg. 40, Wallingford CT 06492
  
  
 ---------------------------------------------------------------
 Warning -- This program may not be used in any manner that
 competes with the business of Gaussian, Inc. or will provide
 assistance to any competitor of Gaussian, Inc.  The licensee
 of this program is prohibited from giving any competitor of
 Gaussian, Inc. access to this program.  By using this program,
 the user acknowledges that Gaussian, Inc. is engaged in the
 business of creating and licensing software in the field of
 computational chemistry and represents and warrants to the
 licensee that it is not a competitor of Gaussian, Inc. and that
 it will not use this program in any manner prohibited above.
 ---------------------------------------------------------------
  

 Cite this work as:
 Gaussian 16, Revision C.01,
 M. J. Frisch, G. W. Trucks, H. B. Schlegel, G. E. Scuseria, 
 M. A. Robb, J. R. Cheeseman, G. Scalmani, V. Barone, 
 G. A. Petersson, H. Nakatsuji, X. Li, M. Caricato, A. V. Marenich, 
 J. Bloino, B. G. Janesko, R. Gomperts, B. Mennucci, H. P. Hratchian, 
 J. V. Ortiz, A. F. Izmaylov, J. L. Sonnenberg, D. Williams-Young, 
 F. Ding, F. Lipparini, F. Egidi, J. Goings, B. Peng, A. Petrone, 
 T. Henderson, D. Ranasinghe, V. G. Zakrzewski, J. Gao, N. Rega, 
 G. Zheng, W. Liang, M. Hada, M. Ehara, K. Toyota, R. Fukuda, 
 J. Hasegawa, M. Ishida, T. Nakajima, Y. Honda, O. Kitao, H. Nakai, 
 T. Vreven, K. Throssell, J. A. Montgomery, Jr., J. E. Peralta, 
 F. Ogliaro, M. J. Bearpark, J. J. Heyd, E. N. Brothers, K. N. Kudin, 
 V. N. Staroverov, T. A. Keith, R. Kobayashi, J. Normand, 
 K. Raghavachari, A. P. Rendell, J. C. Burant, S. S. Iyengar, 
 J. Tomasi, M. Cossi, J. M. Millam, M. Klene, C. Adamo, R. Cammi, 
 J. W. Ochterski, R. L. Martin, K. Morokuma, O. Farkas, 
 J. B. Foresman, and D. J. Fox, Gaussian, Inc., Wallingford CT, 2019.
 
 ******************************************
 Gaussian 16:  ES64L-G16RevC.01  3-Jul-2019
                 4-May-2022 
 ******************************************
 %Nprocshared=8
 Will use up to    8 processors via shared memory.
 %Mem=4000mb
 ----------------------------------------------
 # wb97xd 6-31++g** opt freq Temperature=298.15
 ----------------------------------------------
 1/18=20,19=15,26=3,38=1,112=298150/1,3;
 2/9=110,12=2,17=6,18=5,40=1/2;
 3/5=1,6=6,7=1111,11=2,25=1,30=1,71=1,74=-58/1,2,3;
 4//1;
 5/5=2,38=5/2;
 6/7=2,8=2,9=2,10=2,28=1/1;
 7//1,2,3,16;
 1/18=20,19=15,26=3/3(2);
 2/9=110/2;
 99//99;
 2/9=110/2;
 3/5=1,6=6,7=1111,11=2,25=1,30=1,71=1,74=-58/1,2,3;
 4/5=5,16=3,69=1/1;
 5/5=2,38=5/2;
 7//1,2,3,16;
 1/18=20,19=15,26=3/3(-5);
 2/9=110/2;
 6/7=2,8=2,9=2,10=2,19=2,28=1/1;
 99/9=1/99;
 --------
 1dma.xyz
 --------
 Symbolic Z-matrix:
 Charge =  0 Multiplicity = 1
 H                    -0.77033   1.20666   0. 
 H                     0.96425  -0.78482   1.27113 
 H                    -0.02537   0.43044   2.08666 
 H                    -0.80427  -0.94874   1.2644 
 H                     0.96425  -0.78482  -1.27113 
 H                    -0.80427  -0.94874  -1.2644 
 H                    -0.02537   0.43044  -2.08666 
 C                     0.02637  -0.22191   1.21084 
 C                     0.02637  -0.22191  -1.21084 
 N                     0.02637   0.58036   0. 
 

 GradGradGradGradGradGradGradGradGradGradGradGradGradGradGradGradGradGrad
 Berny optimization.
 Initialization pass.
                           ----------------------------
                           !    Initial Parameters    !
                           ! (Angstroms and Degrees)  !
 --------------------------                            --------------------------
 ! Name  Definition              Value          Derivative Info.                !
 --------------------------------------------------------------------------------
 ! R1    R(1,10)                 1.0134         estimate D2E/DX2                !
 ! R2    R(2,8)                  1.0955         estimate D2E/DX2                !
 ! R3    R(3,8)                  1.0933         estimate D2E/DX2                !
 ! R4    R(4,8)                  1.105          estimate D2E/DX2                !
 ! R5    R(5,9)                  1.0955         estimate D2E/DX2                !
 ! R6    R(6,9)                  1.105          estimate D2E/DX2                !
 ! R7    R(7,9)                  1.0933         estimate D2E/DX2                !
 ! R8    R(8,10)                 1.4525         estimate D2E/DX2                !
 ! R9    R(9,10)                 1.4525         estimate D2E/DX2                !
 ! A1    A(2,8,3)              107.6395         estimate D2E/DX2                !
 ! A2    A(2,8,4)              107.6313         estimate D2E/DX2                !
 ! A3    A(2,8,10)             109.2499         estimate D2E/DX2                !
 ! A4    A(3,8,4)              108.5457         estimate D2E/DX2                !
 ! A5    A(3,8,10)             109.7691         estimate D2E/DX2                !
 ! A6    A(4,8,10)             113.8096         estimate D2E/DX2                !
 ! A7    A(5,9,6)              107.6313         estimate D2E/DX2                !
 ! A8    A(5,9,7)              107.6395         estimate D2E/DX2                !
 ! A9    A(5,9,10)             109.2499         estimate D2E/DX2                !
 ! A10   A(6,9,7)              108.5457         estimate D2E/DX2                !
 ! A11   A(6,9,10)             113.8096         estimate D2E/DX2                !
 ! A12   A(7,9,10)             109.7691         estimate D2E/DX2                !
 ! A13   A(1,10,8)             109.9593         estimate D2E/DX2                !
 ! A14   A(1,10,9)             109.9593         estimate D2E/DX2                !
 ! A15   A(8,10,9)             112.9452         estimate D2E/DX2                !
 ! D1    D(2,8,10,1)          -171.6925         estimate D2E/DX2                !
 ! D2    D(2,8,10,9)            65.0696         estimate D2E/DX2                !
 ! D3    D(3,8,10,1)           -53.8796         estimate D2E/DX2                !
 ! D4    D(3,8,10,9)          -177.1175         estimate D2E/DX2                !
 ! D5    D(4,8,10,1)            67.9917         estimate D2E/DX2                !
 ! D6    D(4,8,10,9)           -55.2461         estimate D2E/DX2                !
 ! D7    D(5,9,10,1)           171.6925         estimate D2E/DX2                !
 ! D8    D(5,9,10,8)           -65.0696         estimate D2E/DX2                !
 ! D9    D(6,9,10,1)           -67.9917         estimate D2E/DX2                !
 ! D10   D(6,9,10,8)            55.2461         estimate D2E/DX2                !
 ! D11   D(7,9,10,1)            53.8796         estimate D2E/DX2                !
 ! D12   D(7,9,10,8)           177.1175         estimate D2E/DX2                !
 --------------------------------------------------------------------------------
 Trust Radius=3.00D-01 FncErr=1.00D-07 GrdErr=1.00D-06 EigMax=2.50D+02 EigMin=1.00D-04
 Number of steps in this run=     46 maximum allowed number of steps=    100.
 GradGradGradGradGradGradGradGradGradGradGradGradGradGradGradGradGradGrad

                          Input orientation:                          
 ---------------------------------------------------------------------
 Center     Atomic      Atomic             Coordinates (Angstroms)
 Number     Number       Type             X           Y           Z
 ---------------------------------------------------------------------
      1          1           0       -0.770327    1.206659    0.000000
      2          1           0        0.964253   -0.784821    1.271130
      3          1           0       -0.025367    0.430439    2.086660
      4          1           0       -0.804267   -0.948741    1.264400
      5          1           0        0.964253   -0.784821   -1.271130
      6          1           0       -0.804267   -0.948741   -1.264400
      7          1           0       -0.025367    0.430439   -2.086660
      8          6           0        0.026373   -0.221911    1.210840
      9          6           0        0.026373   -0.221911   -1.210840
     10          7           0        0.026373    0.580359    0.000000
 ---------------------------------------------------------------------
                    Distance matrix (angstroms):
                    1          2          3          4          5
     1  H    0.000000
     2  H    2.930961   0.000000
     3  H    2.347687   1.766718   0.000000
     4  H    2.499122   1.776113   1.784638   0.000000
     5  H    2.930961   2.542260   3.705531   3.095714   0.000000
     6  H    2.499122   3.095714   3.706538   2.528800   1.776113
     7  H    2.347687   3.705531   4.173320   3.706538   1.766718
     8  C    2.035111   1.095501   1.093297   1.105040   2.712317
     9  C    2.035111   2.712317   3.361807   2.710177   1.095501
    10  N    1.013401   2.087847   2.092678   2.151004   2.087847
                    6          7          8          9         10
     6  H    0.000000
     7  H    1.784638   0.000000
     8  C    2.710177   3.361807   0.000000
     9  C    1.105040   1.093297   2.421680   0.000000
    10  N    2.151004   2.092678   1.452505   1.452505   0.000000
 Stoichiometry    C2H7N
 Framework group  CS[SG(HN),X(C2H6)]
 Deg. of freedom    13
 Full point group                 CS      NOp   2
 Largest Abelian subgroup         CS      NOp   2
 Largest concise Abelian subgroup CS      NOp   2
                         Standard orientation:                         
 ---------------------------------------------------------------------
 Center     Atomic      Atomic             Coordinates (Angstroms)
 Number     Number       Type             X           Y           Z
 ---------------------------------------------------------------------
      1          1           0       -0.770327    1.206659   -0.000000
      2          1           0        0.964253   -0.784821    1.271130
      3          1           0       -0.025367    0.430439    2.086660
      4          1           0       -0.804267   -0.948741    1.264400
      5          1           0        0.964253   -0.784821   -1.271130
      6          1           0       -0.804267   -0.948741   -1.264400
      7          1           0       -0.025367    0.430439   -2.086660
      8          6           0        0.026373   -0.221911    1.210840
      9          6           0        0.026373   -0.221911   -1.210840
     10          7           0        0.026373    0.580359   -0.000000
 ---------------------------------------------------------------------
 Rotational constants (GHZ):          34.7330945           9.3364595           8.2434734
 Standard basis: 6-31++G(d,p) (6D, 7F)
 There are    56 symmetry adapted cartesian basis functions of A'  symmetry.
 There are    43 symmetry adapted cartesian basis functions of A"  symmetry.
 There are    56 symmetry adapted basis functions of A'  symmetry.
 There are    43 symmetry adapted basis functions of A"  symmetry.
    99 basis functions,   152 primitive gaussians,    99 cartesian basis functions
    13 alpha electrons       13 beta electrons
       nuclear repulsion energy        84.1829156713 Hartrees.
 NAtoms=   10 NActive=   10 NUniq=    6 SFac= 2.78D+00 NAtFMM=   60 NAOKFM=F Big=F
 Integral buffers will be    131072 words long.
 Raffenetti 2 integral format.
 Two-electron integral symmetry is turned on.
 Nuclear repulsion after empirical dispersion term =       84.1797692230 Hartrees.
 One-electron integrals computed using PRISM.
 NBasis=    99 RedAO= T EigKep=  6.79D-04  NBF=    56    43
 NBsUse=    99 1.00D-06 EigRej= -1.00D+00 NBFU=    56    43
 ExpMin= 3.60D-02 ExpMax= 4.17D+03 ExpMxC= 6.27D+02 IAcc=3 IRadAn=         5 AccDes= 0.00D+00
 Harris functional with IExCor= 4639 and IRadAn=       5 diagonalized for initial guess.
 HarFok:  IExCor= 4639 AccDes= 0.00D+00 IRadAn=         5 IDoV= 1 UseB2=F ITyADJ=14
 ICtDFT=  3500011 ScaDFX=  1.000000  1.000000  1.000000  1.000000
 FoFCou: FMM=F IPFlag=           0 FMFlag=      100000 FMFlg1=           0
         NFxFlg=           0 DoJE=T BraDBF=F KetDBF=T FulRan=T
         wScrn=  0.000000 ICntrl=       500 IOpCl=  0 I1Cent=   200000004 NGrid=           0
         NMat0=    1 NMatS0=      1 NMatT0=    0 NMatD0=    1 NMtDS0=    0 NMtDT0=    0
 Petite list used in FoFCou.
 Initial guess orbital symmetries:
       Occupied  (A') (A") (A') (A') (A") (A') (A') (A') (A") (A")
                 (A") (A') (A')
       Virtual   (A') (A") (A') (A') (A') (A") (A") (A') (A') (A")
                 (A') (A') (A") (A") (A') (A") (A') (A') (A") (A')
                 (A") (A') (A") (A") (A') (A') (A') (A") (A') (A")
                 (A') (A") (A') (A") (A') (A') (A") (A") (A') (A')
                 (A") (A') (A') (A") (A') (A") (A') (A") (A') (A")
                 (A') (A") (A') (A") (A') (A') (A") (A') (A") (A')
                 (A") (A') (A') (A") (A") (A') (A') (A") (A') (A")
                 (A') (A") (A') (A") (A') (A") (A') (A") (A') (A")
                 (A') (A") (A') (A') (A") (A')
 The electronic state of the initial guess is 1-A'.
 Keep R1 ints in memory in symmetry-blocked form, NReq=36784670.
 Requested convergence on RMS density matrix=1.00D-08 within 128 cycles.
 Requested convergence on MAX density matrix=1.00D-06.
 Requested convergence on             energy=1.00D-06.
 No special actions if energy rises.
 SCF Done:  E(RwB97XD) =  -135.134508382     A.U. after   12 cycles
            NFock= 12  Conv=0.32D-08     -V/T= 2.0100

 **********************************************************************

            Population analysis using the SCF Density.

 **********************************************************************

 Orbital symmetries:
       Occupied  (A') (A") (A') (A') (A") (A') (A') (A') (A") (A")
                 (A') (A") (A')
       Virtual   (A') (A") (A') (A') (A') (A") (A") (A') (A") (A')
                 (A') (A') (A") (A") (A") (A') (A') (A') (A') (A")
                 (A") (A') (A") (A') (A") (A') (A') (A") (A') (A")
                 (A') (A") (A') (A") (A') (A') (A") (A") (A') (A')
                 (A") (A') (A') (A") (A') (A") (A') (A") (A') (A")
                 (A') (A") (A') (A') (A") (A") (A') (A') (A') (A")
                 (A") (A') (A') (A") (A") (A') (A') (A") (A') (A")
                 (A') (A") (A') (A") (A') (A") (A') (A") (A') (A")
                 (A') (A") (A') (A') (A") (A')
 The electronic state is 1-A'.
 Alpha  occ. eigenvalues --  -14.44006 -10.31242 -10.31241  -1.00106  -0.79833
 Alpha  occ. eigenvalues --   -0.72252  -0.57772  -0.53014  -0.52101  -0.47011
 Alpha  occ. eigenvalues --   -0.44794  -0.44479  -0.30269
 Alpha virt. eigenvalues --    0.04220   0.06010   0.06453   0.07644   0.09363
 Alpha virt. eigenvalues --    0.09391   0.10629   0.12920   0.15734   0.16032
 Alpha virt. eigenvalues --    0.17124   0.19247   0.19254   0.20284   0.22427
 Alpha virt. eigenvalues --    0.22941   0.25732   0.28368   0.29071   0.29516
 Alpha virt. eigenvalues --    0.30849   0.31911   0.33816   0.35383   0.36094
 Alpha virt. eigenvalues --    0.41799   0.43561   0.44375   0.75390   0.79805
 Alpha virt. eigenvalues --    0.80667   0.81510   0.81680   0.88967   0.94280
 Alpha virt. eigenvalues --    0.97764   1.02610   1.06163   1.07700   1.09945
 Alpha virt. eigenvalues --    1.12114   1.17876   1.19462   1.21060   1.28846
 Alpha virt. eigenvalues --    1.40409   1.41845   1.49498   1.52749   1.67302
 Alpha virt. eigenvalues --    1.82795   1.89169   2.00690   2.09616   2.10079
 Alpha virt. eigenvalues --    2.13245   2.13330   2.17430   2.22340   2.22368
 Alpha virt. eigenvalues --    2.23402   2.29159   2.43227   2.46556   2.49294
 Alpha virt. eigenvalues --    2.53462   2.68506   2.70998   2.79249   2.80052
 Alpha virt. eigenvalues --    2.83209   2.86097   2.97591   2.98755   3.05437
 Alpha virt. eigenvalues --    3.07989   3.31250   3.34276   3.44256   3.52695
 Alpha virt. eigenvalues --    3.56860   3.58385   3.65552   4.28930   4.60223
 Alpha virt. eigenvalues --    4.63486
          Condensed to atoms (all electrons):
               1          2          3          4          5          6
     1  H    0.470823   0.009726  -0.005527  -0.008950   0.009726  -0.008950
     2  H    0.009726   0.552214  -0.016254  -0.052882   0.008676  -0.004957
     3  H   -0.005527  -0.016254   0.534574  -0.036952   0.000114   0.000851
     4  H   -0.008950  -0.052882  -0.036952   0.628872  -0.004957   0.009068
     5  H    0.009726   0.008676   0.000114  -0.004957   0.552214  -0.052882
     6  H   -0.008950  -0.004957   0.000851   0.009068  -0.052882   0.628872
     7  H   -0.005527   0.000114  -0.000286   0.000851  -0.016254  -0.036952
     8  C   -0.061878   0.406251   0.407858   0.436268  -0.014131   0.010209
     9  C   -0.061878  -0.014131   0.005500   0.010209   0.406251   0.436268
    10  N    0.366430  -0.041927  -0.042158  -0.108082  -0.041927  -0.108082
               7          8          9         10
     1  H   -0.005527  -0.061878  -0.061878   0.366430
     2  H    0.000114   0.406251  -0.014131  -0.041927
     3  H   -0.000286   0.407858   0.005500  -0.042158
     4  H    0.000851   0.436268   0.010209  -0.108082
     5  H   -0.016254  -0.014131   0.406251  -0.041927
     6  H   -0.036952   0.010209   0.436268  -0.108082
     7  H    0.534574   0.005500   0.407858  -0.042158
     8  C    0.005500   5.073173  -0.060740   0.194873
     9  C    0.407858  -0.060740   5.073173   0.194873
    10  N   -0.042158   0.194873   0.194873   6.993403
 Mulliken charges:
               1
     1  H    0.296006
     2  H    0.153170
     3  H    0.152279
     4  H    0.126554
     5  H    0.153170
     6  H    0.126554
     7  H    0.152279
     8  C   -0.397383
     9  C   -0.397383
    10  N   -0.365245
 Sum of Mulliken charges =   0.00000
 Mulliken charges with hydrogens summed into heavy atoms:
               1
     8  C    0.034620
     9  C    0.034620
    10  N   -0.069239
 Electronic spatial extent (au):  <R**2>=            204.5069
 Charge=             -0.0000 electrons
 Dipole moment (field-independent basis, Debye):
    X=             -1.0230    Y=             -0.4562    Z=             -0.0000  Tot=              1.1201
 Quadrupole moment (field-independent basis, Debye-Ang):
   XX=            -21.0428   YY=            -21.6216   ZZ=            -19.6255
   XY=             -2.3699   XZ=             -0.0000   YZ=             -0.0000
 Traceless Quadrupole moment (field-independent basis, Debye-Ang):
   XX=             -0.2795   YY=             -0.8583   ZZ=              1.1378
   XY=             -2.3699   XZ=             -0.0000   YZ=             -0.0000
 Octapole moment (field-independent basis, Debye-Ang**2):
  XXX=             -0.7111  YYY=              1.6741  ZZZ=             -0.0000  XYY=             -2.6207
  XXY=             -0.2146  XXZ=              0.0000  XZZ=              0.4206  YZZ=              2.1255
  YYZ=             -0.0000  XYZ=              0.0000
 Hexadecapole moment (field-independent basis, Debye-Ang**3):
 XXXX=            -39.5854 YYYY=            -61.9932 ZZZZ=           -179.4607 XXXY=             -1.4866
 XXXZ=              0.0000 YYYX=             -3.1530 YYYZ=              0.0000 ZZZX=              0.0000
 ZZZY=             -0.0000 XXYY=            -15.6398 XXZZ=            -38.3722 YYZZ=            -39.8508
 XXYZ=              0.0000 YYXZ=              0.0000 ZZXY=             -0.5397
 N-N= 8.417976922297D+01 E-N=-4.813428821143D+02  KE= 1.337957146741D+02
 Symmetry A'   KE= 9.200685331597D+01
 Symmetry A"   KE= 4.178886135816D+01
 Calling FoFJK, ICntrl=      2127 FMM=F ISym2X=1 I1Cent= 0 IOpClX= 0 NMat=1 NMatS=1 NMatT=0.
 ***** Axes restored to original set *****
 -------------------------------------------------------------------
 Center     Atomic                   Forces (Hartrees/Bohr)
 Number     Number              X              Y              Z
 -------------------------------------------------------------------
      1        1          -0.000036267   -0.000033253    0.000000000
      2        1          -0.000015960   -0.000031855   -0.000028392
      3        1          -0.000069067   -0.000050862    0.000001625
      4        1          -0.000054613   -0.000000302    0.000036932
      5        1          -0.000015960   -0.000031855    0.000028392
      6        1          -0.000054613   -0.000000302   -0.000036932
      7        1          -0.000069067   -0.000050862   -0.000001625
      8        6           0.000140711    0.000100457   -0.000015306
      9        6           0.000140711    0.000100457    0.000015306
     10        7           0.000034125   -0.000001623    0.000000000
 -------------------------------------------------------------------
 Cartesian Forces:  Max     0.000140711 RMS     0.000055198

 GradGradGradGradGradGradGradGradGradGradGradGradGradGradGradGradGradGrad
 Berny optimization.
 FormGI is forming the generalized inverse of G from B-inverse, IUseBI=4.
 Internal  Forces:  Max     0.000068850 RMS     0.000030868
 Search for a local minimum.
 Step number   1 out of a maximum of   46
 All quantities printed in internal units (Hartrees-Bohrs-Radians)
 Mixed Optimization -- En-DIIS/RFO-DIIS
 Second derivative matrix not updated -- first step.
 ITU=  0
     Eigenvalues ---    0.00997   0.00997   0.02836   0.07093   0.07093
     Eigenvalues ---    0.07642   0.07642   0.11268   0.16000   0.16000
     Eigenvalues ---    0.16000   0.16000   0.16000   0.16000   0.23313
     Eigenvalues ---    0.33131   0.33131   0.34185   0.34185   0.34434
     Eigenvalues ---    0.34434   0.37919   0.37919   0.45408
 RFO step:  Lambda=-3.88020247D-07 EMin= 9.97240427D-03
 Linear search not attempted -- first point.
 Iteration  1 RMS(Cart)=  0.00038745 RMS(Int)=  0.00000018
 Iteration  2 RMS(Cart)=  0.00000017 RMS(Int)=  0.00000006
 ClnCor:  largest displacement from symmetrization is 8.05D-13 for atom     6.
 Variable       Old X    -DE/DX   Delta X   Delta X   Delta X     New X
                                 (Linear)    (Quad)   (Total)
    R1        1.91505   0.00001   0.00000   0.00002   0.00002   1.91507
    R2        2.07020   0.00000   0.00000   0.00000   0.00000   2.07020
    R3        2.06603  -0.00003   0.00000  -0.00007  -0.00007   2.06596
    R4        2.08822   0.00004   0.00000   0.00013   0.00013   2.08835
    R5        2.07020   0.00000   0.00000   0.00000   0.00000   2.07020
    R6        2.08822   0.00004   0.00000   0.00013   0.00013   2.08835
    R7        2.06603  -0.00003   0.00000  -0.00007  -0.00007   2.06596
    R8        2.74484  -0.00001   0.00000  -0.00004  -0.00004   2.74480
    R9        2.74484  -0.00001   0.00000  -0.00004  -0.00004   2.74480
    A1        1.87866   0.00003   0.00000   0.00046   0.00046   1.87912
    A2        1.87852  -0.00000   0.00000  -0.00006  -0.00006   1.87846
    A3        1.90677  -0.00000   0.00000   0.00009   0.00009   1.90686
    A4        1.89448  -0.00007   0.00000  -0.00065  -0.00065   1.89383
    A5        1.91583   0.00006   0.00000   0.00037   0.00037   1.91620
    A6        1.98635  -0.00001   0.00000  -0.00018  -0.00018   1.98617
    A7        1.87852  -0.00000   0.00000  -0.00006  -0.00006   1.87846
    A8        1.87866   0.00003   0.00000   0.00046   0.00046   1.87912
    A9        1.90677  -0.00000   0.00000   0.00009   0.00009   1.90686
   A10        1.89448  -0.00007   0.00000  -0.00065  -0.00065   1.89383
   A11        1.98635  -0.00001   0.00000  -0.00018  -0.00018   1.98617
   A12        1.91583   0.00006   0.00000   0.00037   0.00037   1.91620
   A13        1.91915  -0.00000   0.00000  -0.00029  -0.00029   1.91887
   A14        1.91915  -0.00000   0.00000  -0.00029  -0.00029   1.91887
   A15        1.97127  -0.00002   0.00000  -0.00021  -0.00021   1.97106
    D1       -2.99660  -0.00004   0.00000  -0.00127  -0.00127  -2.99787
    D2        1.13568  -0.00002   0.00000  -0.00054  -0.00054   1.13514
    D3       -0.94038   0.00002   0.00000  -0.00045  -0.00045  -0.94082
    D4       -3.09128   0.00004   0.00000   0.00029   0.00029  -3.09099
    D5        1.18668  -0.00003   0.00000  -0.00114  -0.00114   1.18553
    D6       -0.96423  -0.00001   0.00000  -0.00041  -0.00041  -0.96464
    D7        2.99660   0.00004   0.00000   0.00127   0.00127   2.99787
    D8       -1.13568   0.00002   0.00000   0.00054   0.00054  -1.13514
    D9       -1.18668   0.00003   0.00000   0.00114   0.00114  -1.18553
   D10        0.96423   0.00001   0.00000   0.00041   0.00041   0.96464
   D11        0.94038  -0.00002   0.00000   0.00045   0.00045   0.94082
   D12        3.09128  -0.00004   0.00000  -0.00029  -0.00029   3.09099
         Item               Value     Threshold  Converged?
 Maximum Force            0.000069     0.000450     YES
 RMS     Force            0.000031     0.000300     YES
 Maximum Displacement     0.000758     0.001800     YES
 RMS     Displacement     0.000387     0.001200     YES
 Predicted change in Energy=-1.940204D-07
 Optimization completed.
    -- Stationary point found.
                           ----------------------------
                           !   Optimized Parameters   !
                           ! (Angstroms and Degrees)  !
 --------------------------                            --------------------------
 ! Name  Definition              Value          Derivative Info.                !
 --------------------------------------------------------------------------------
 ! R1    R(1,10)                 1.0134         -DE/DX =    0.0                 !
 ! R2    R(2,8)                  1.0955         -DE/DX =    0.0                 !
 ! R3    R(3,8)                  1.0933         -DE/DX =    0.0                 !
 ! R4    R(4,8)                  1.105          -DE/DX =    0.0                 !
 ! R5    R(5,9)                  1.0955         -DE/DX =    0.0                 !
 ! R6    R(6,9)                  1.105          -DE/DX =    0.0                 !
 ! R7    R(7,9)                  1.0933         -DE/DX =    0.0                 !
 ! R8    R(8,10)                 1.4525         -DE/DX =    0.0                 !
 ! R9    R(9,10)                 1.4525         -DE/DX =    0.0                 !
 ! A1    A(2,8,3)              107.6395         -DE/DX =    0.0                 !
 ! A2    A(2,8,4)              107.6313         -DE/DX =    0.0                 !
 ! A3    A(2,8,10)             109.2499         -DE/DX =    0.0                 !
 ! A4    A(3,8,4)              108.5457         -DE/DX =   -0.0001              !
 ! A5    A(3,8,10)             109.7691         -DE/DX =    0.0001              !
 ! A6    A(4,8,10)             113.8096         -DE/DX =    0.0                 !
 ! A7    A(5,9,6)              107.6313         -DE/DX =    0.0                 !
 ! A8    A(5,9,7)              107.6395         -DE/DX =    0.0                 !
 ! A9    A(5,9,10)             109.2499         -DE/DX =    0.0                 !
 ! A10   A(6,9,7)              108.5457         -DE/DX =   -0.0001              !
 ! A11   A(6,9,10)             113.8096         -DE/DX =    0.0                 !
 ! A12   A(7,9,10)             109.7691         -DE/DX =    0.0001              !
 ! A13   A(1,10,8)             109.9593         -DE/DX =    0.0                 !
 ! A14   A(1,10,9)             109.9593         -DE/DX =    0.0                 !
 ! A15   A(8,10,9)             112.9452         -DE/DX =    0.0                 !
 ! D1    D(2,8,10,1)          -171.6925         -DE/DX =    0.0                 !
 ! D2    D(2,8,10,9)            65.0696         -DE/DX =    0.0                 !
 ! D3    D(3,8,10,1)           -53.8796         -DE/DX =    0.0                 !
 ! D4    D(3,8,10,9)          -177.1175         -DE/DX =    0.0                 !
 ! D5    D(4,8,10,1)            67.9917         -DE/DX =    0.0                 !
 ! D6    D(4,8,10,9)           -55.2461         -DE/DX =    0.0                 !
 ! D7    D(5,9,10,1)           171.6925         -DE/DX =    0.0                 !
 ! D8    D(5,9,10,8)           -65.0696         -DE/DX =    0.0                 !
 ! D9    D(6,9,10,1)           -67.9917         -DE/DX =    0.0                 !
 ! D10   D(6,9,10,8)            55.2461         -DE/DX =    0.0                 !
 ! D11   D(7,9,10,1)            53.8796         -DE/DX =    0.0                 !
 ! D12   D(7,9,10,8)           177.1175         -DE/DX =    0.0                 !
 --------------------------------------------------------------------------------
 GradGradGradGradGradGradGradGradGradGradGradGradGradGradGradGradGradGrad

                          Input orientation:                          
 ---------------------------------------------------------------------
 Center     Atomic      Atomic             Coordinates (Angstroms)
 Number     Number       Type             X           Y           Z
 ---------------------------------------------------------------------
      1          1           0       -0.770327    1.206659   -0.000000
      2          1           0        0.964253   -0.784821    1.271130
      3          1           0       -0.025367    0.430439    2.086660
      4          1           0       -0.804267   -0.948741    1.264400
      5          1           0        0.964253   -0.784821   -1.271130
      6          1           0       -0.804267   -0.948741   -1.264400
      7          1           0       -0.025367    0.430439   -2.086660
      8          6           0        0.026373   -0.221911    1.210840
      9          6           0        0.026373   -0.221911   -1.210840
     10          7           0        0.026373    0.580359   -0.000000
 ---------------------------------------------------------------------
                    Distance matrix (angstroms):
                    1          2          3          4          5
     1  H    0.000000
     2  H    2.930961   0.000000
     3  H    2.347687   1.766718   0.000000
     4  H    2.499122   1.776113   1.784638   0.000000
     5  H    2.930961   2.542260   3.705531   3.095714   0.000000
     6  H    2.499122   3.095714   3.706538   2.528800   1.776113
     7  H    2.347687   3.705531   4.173320   3.706538   1.766718
     8  C    2.035111   1.095501   1.093297   1.105040   2.712317
     9  C    2.035111   2.712317   3.361807   2.710177   1.095501
    10  N    1.013401   2.087847   2.092678   2.151004   2.087847
                    6          7          8          9         10
     6  H    0.000000
     7  H    1.784638   0.000000
     8  C    2.710177   3.361807   0.000000
     9  C    1.105040   1.093297   2.421680   0.000000
    10  N    2.151004   2.092678   1.452505   1.452505   0.000000
 Stoichiometry    C2H7N
 Framework group  CS[SG(HN),X(C2H6)]
 Deg. of freedom    13
 Full point group                 CS      NOp   2
 Largest Abelian subgroup         CS      NOp   2
 Largest concise Abelian subgroup CS      NOp   2
                         Standard orientation:                         
 ---------------------------------------------------------------------
 Center     Atomic      Atomic             Coordinates (Angstroms)
 Number     Number       Type             X           Y           Z
 ---------------------------------------------------------------------
      1          1           0       -0.770327    1.206659    0.000000
      2          1           0        0.964253   -0.784821    1.271130
      3          1           0       -0.025367    0.430439    2.086660
      4          1           0       -0.804267   -0.948741    1.264400
      5          1           0        0.964253   -0.784821   -1.271130
      6          1           0       -0.804267   -0.948741   -1.264400
      7          1           0       -0.025367    0.430439   -2.086660
      8          6           0        0.026373   -0.221911    1.210840
      9          6           0        0.026373   -0.221911   -1.210840
     10          7           0        0.026373    0.580359    0.000000
 ---------------------------------------------------------------------
 Rotational constants (GHZ):          34.7330945           9.3364595           8.2434734
 Unable to Open any file for archive entry.
 1\1\GINC-R15C37\FOpt\RwB97XD\6-31++G(d,p)\C2H7N1\KUBECKAJ\04-May-2022\
 0\\# wb97xd 6-31++g** opt freq Temperature=298.15\\1dma.xyz\\0,1\H,-0.
 770327,1.206659,0.\H,0.964253,-0.784821,1.27113\H,-0.025367,0.430439,2
 .08666\H,-0.804267,-0.948741,1.2644\H,0.964253,-0.784821,-1.27113\H,-0
 .804267,-0.948741,-1.2644\H,-0.025367,0.430439,-2.08666\C,0.026373,-0.
 221911,1.21084\C,0.026373,-0.221911,-1.21084\N,0.026373,0.580359,0.\\V
 ersion=ES64L-G16RevC.01\State=1-A'\HF=-135.1345084\RMSD=3.210e-09\RMSF
 =5.520e-05\Dipole=-0.4024923,-0.179468,0.\Quadrupole=-0.2078191,-0.638
 1253,0.8459443,-1.7619784,0.,0.\PG=CS [SG(H1N1),X(C2H6)]\\@
 The archive entry for this job was punched.


 THERE IS NO SCIENCE WITHOUT FANCY, NOR ART WITHOUT FACTS.
     -- VLADIMIR NABAKOV
 Job cpu time:       0 days  0 hours  0 minutes 24.7 seconds.
 Elapsed time:       0 days  0 hours  0 minutes  3.6 seconds.
 File lengths (MBytes):  RWF=     10 Int=      0 D2E=      0 Chk=      2 Scr=      1
 Normal termination of Gaussian 16 at Wed May  4 01:12:58 2022.
 Link1:  Proceeding to internal job step number  2.
 ----------------------------------------------------------------------
 #N Geom=AllCheck Guess=TCheck SCRF=Check GenChk RwB97XD/6-31++G(d,p) F
 req
 ----------------------------------------------------------------------
 1/10=4,29=7,30=1,38=1,40=1,112=298150/1,3;
 2/12=2,40=1/2;
 3/5=1,6=6,7=1111,11=2,14=-4,25=1,30=1,70=2,71=2,74=-58,116=1,140=1/1,2,3;
 4/5=101/1;
 5/5=2,38=6,98=1/2;
 8/6=4,10=90,11=11/1;
 11/6=1,8=1,9=11,15=111,16=1/1,2,10;
 10/6=1/2;
 6/7=2,8=2,9=2,10=2,28=1/1;
 7/8=1,10=1,25=1/1,2,3,16;
 1/10=4,30=1/3;
 99//99;
 Structure from the checkpoint file:  "/scratch/hvehkama/kubeckaj/OTHERS/ACDB/monomers/DFT_freq/calc-LM/TMP/G1611637748_1dma/Gau-59037.chk"
 --------
 1dma.xyz
 --------
 Charge =  0 Multiplicity = 1
 Redundant internal coordinates found in file.  (old form).
 H,0,-0.770327,1.206659,0.
 H,0,0.964253,-0.784821,1.27113
 H,0,-0.025367,0.430439,2.08666
 H,0,-0.804267,-0.948741,1.2644
 H,0,0.964253,-0.784821,-1.27113
 H,0,-0.804267,-0.948741,-1.2644
 H,0,-0.025367,0.430439,-2.08666
 C,0,0.026373,-0.221911,1.21084
 C,0,0.026373,-0.221911,-1.21084
 N,0,0.026373,0.580359,0.
 Recover connectivity data from disk.

 GradGradGradGradGradGradGradGradGradGradGradGradGradGradGradGradGradGrad
 Berny optimization.
 Initialization pass.
                           ----------------------------
                           !    Initial Parameters    !
                           ! (Angstroms and Degrees)  !
 --------------------------                            --------------------------
 ! Name  Definition              Value          Derivative Info.                !
 --------------------------------------------------------------------------------
 ! R1    R(1,10)                 1.0134         calculate D2E/DX2 analytically  !
 ! R2    R(2,8)                  1.0955         calculate D2E/DX2 analytically  !
 ! R3    R(3,8)                  1.0933         calculate D2E/DX2 analytically  !
 ! R4    R(4,8)                  1.105          calculate D2E/DX2 analytically  !
 ! R5    R(5,9)                  1.0955         calculate D2E/DX2 analytically  !
 ! R6    R(6,9)                  1.105          calculate D2E/DX2 analytically  !
 ! R7    R(7,9)                  1.0933         calculate D2E/DX2 analytically  !
 ! R8    R(8,10)                 1.4525         calculate D2E/DX2 analytically  !
 ! R9    R(9,10)                 1.4525         calculate D2E/DX2 analytically  !
 ! A1    A(2,8,3)              107.6395         calculate D2E/DX2 analytically  !
 ! A2    A(2,8,4)              107.6313         calculate D2E/DX2 analytically  !
 ! A3    A(2,8,10)             109.2499         calculate D2E/DX2 analytically  !
 ! A4    A(3,8,4)              108.5457         calculate D2E/DX2 analytically  !
 ! A5    A(3,8,10)             109.7691         calculate D2E/DX2 analytically  !
 ! A6    A(4,8,10)             113.8096         calculate D2E/DX2 analytically  !
 ! A7    A(5,9,6)              107.6313         calculate D2E/DX2 analytically  !
 ! A8    A(5,9,7)              107.6395         calculate D2E/DX2 analytically  !
 ! A9    A(5,9,10)             109.2499         calculate D2E/DX2 analytically  !
 ! A10   A(6,9,7)              108.5457         calculate D2E/DX2 analytically  !
 ! A11   A(6,9,10)             113.8096         calculate D2E/DX2 analytically  !
 ! A12   A(7,9,10)             109.7691         calculate D2E/DX2 analytically  !
 ! A13   A(1,10,8)             109.9593         calculate D2E/DX2 analytically  !
 ! A14   A(1,10,9)             109.9593         calculate D2E/DX2 analytically  !
 ! A15   A(8,10,9)             112.9452         calculate D2E/DX2 analytically  !
 ! D1    D(2,8,10,1)          -171.6925         calculate D2E/DX2 analytically  !
 ! D2    D(2,8,10,9)            65.0696         calculate D2E/DX2 analytically  !
 ! D3    D(3,8,10,1)           -53.8796         calculate D2E/DX2 analytically  !
 ! D4    D(3,8,10,9)          -177.1175         calculate D2E/DX2 analytically  !
 ! D5    D(4,8,10,1)            67.9917         calculate D2E/DX2 analytically  !
 ! D6    D(4,8,10,9)           -55.2461         calculate D2E/DX2 analytically  !
 ! D7    D(5,9,10,1)           171.6925         calculate D2E/DX2 analytically  !
 ! D8    D(5,9,10,8)           -65.0696         calculate D2E/DX2 analytically  !
 ! D9    D(6,9,10,1)           -67.9917         calculate D2E/DX2 analytically  !
 ! D10   D(6,9,10,8)            55.2461         calculate D2E/DX2 analytically  !
 ! D11   D(7,9,10,1)            53.8796         calculate D2E/DX2 analytically  !
 ! D12   D(7,9,10,8)           177.1175         calculate D2E/DX2 analytically  !
 --------------------------------------------------------------------------------
 Trust Radius=3.00D-01 FncErr=1.00D-07 GrdErr=1.00D-07 EigMax=2.50D+02 EigMin=1.00D-04
 Number of steps in this run=      2 maximum allowed number of steps=      2.
 GradGradGradGradGradGradGradGradGradGradGradGradGradGradGradGradGradGrad

                          Input orientation:                          
 ---------------------------------------------------------------------
 Center     Atomic      Atomic             Coordinates (Angstroms)
 Number     Number       Type             X           Y           Z
 ---------------------------------------------------------------------
      1          1           0       -0.770327    1.206659    0.000000
      2          1           0        0.964253   -0.784821    1.271130
      3          1           0       -0.025367    0.430439    2.086660
      4          1           0       -0.804267   -0.948741    1.264400
      5          1           0        0.964253   -0.784821   -1.271130
      6          1           0       -0.804267   -0.948741   -1.264400
      7          1           0       -0.025367    0.430439   -2.086660
      8          6           0        0.026373   -0.221911    1.210840
      9          6           0        0.026373   -0.221911   -1.210840
     10          7           0        0.026373    0.580359    0.000000
 ---------------------------------------------------------------------
                    Distance matrix (angstroms):
                    1          2          3          4          5
     1  H    0.000000
     2  H    2.930961   0.000000
     3  H    2.347687   1.766718   0.000000
     4  H    2.499122   1.776113   1.784638   0.000000
     5  H    2.930961   2.542260   3.705531   3.095714   0.000000
     6  H    2.499122   3.095714   3.706538   2.528800   1.776113
     7  H    2.347687   3.705531   4.173320   3.706538   1.766718
     8  C    2.035111   1.095501   1.093297   1.105040   2.712317
     9  C    2.035111   2.712317   3.361807   2.710177   1.095501
    10  N    1.013401   2.087847   2.092678   2.151004   2.087847
                    6          7          8          9         10
     6  H    0.000000
     7  H    1.784638   0.000000
     8  C    2.710177   3.361807   0.000000
     9  C    1.105040   1.093297   2.421680   0.000000
    10  N    2.151004   2.092678   1.452505   1.452505   0.000000
 Stoichiometry    C2H7N
 Framework group  CS[SG(HN),X(C2H6)]
 Deg. of freedom    13
 Full point group                 CS      NOp   2
 Largest Abelian subgroup         CS      NOp   2
 Largest concise Abelian subgroup CS      NOp   2
                         Standard orientation:                         
 ---------------------------------------------------------------------
 Center     Atomic      Atomic             Coordinates (Angstroms)
 Number     Number       Type             X           Y           Z
 ---------------------------------------------------------------------
      1          1           0       -0.770327    1.206659    0.000000
      2          1           0        0.964253   -0.784821    1.271130
      3          1           0       -0.025367    0.430439    2.086660
      4          1           0       -0.804267   -0.948741    1.264400
      5          1           0        0.964253   -0.784821   -1.271130
      6          1           0       -0.804267   -0.948741   -1.264400
      7          1           0       -0.025367    0.430439   -2.086660
      8          6           0        0.026373   -0.221911    1.210840
      9          6           0        0.026373   -0.221911   -1.210840
     10          7           0        0.026373    0.580359    0.000000
 ---------------------------------------------------------------------
 Rotational constants (GHZ):          34.7330945           9.3364595           8.2434734
 Standard basis: 6-31++G(d,p) (6D, 7F)
 There are    56 symmetry adapted cartesian basis functions of A'  symmetry.
 There are    43 symmetry adapted cartesian basis functions of A"  symmetry.
 There are    56 symmetry adapted basis functions of A'  symmetry.
 There are    43 symmetry adapted basis functions of A"  symmetry.
    99 basis functions,   152 primitive gaussians,    99 cartesian basis functions
    13 alpha electrons       13 beta electrons
       nuclear repulsion energy        84.1829156713 Hartrees.
 NAtoms=   10 NActive=   10 NUniq=    6 SFac= 2.78D+00 NAtFMM=   60 NAOKFM=F Big=F
 Integral buffers will be    131072 words long.
 Raffenetti 2 integral format.
 Two-electron integral symmetry is turned on.
 Nuclear repulsion after empirical dispersion term =       84.1797692230 Hartrees.
 One-electron integrals computed using PRISM.
 NBasis=    99 RedAO= T EigKep=  6.79D-04  NBF=    56    43
 NBsUse=    99 1.00D-06 EigRej= -1.00D+00 NBFU=    56    43
 Initial guess from the checkpoint file:  "/scratch/hvehkama/kubeckaj/OTHERS/ACDB/monomers/DFT_freq/calc-LM/TMP/G1611637748_1dma/Gau-59037.chk"
 B after Tr=    -0.000000    0.000000    0.000000
         Rot=    1.000000   -0.000000   -0.000000    0.000000 Ang=   0.00 deg.
 Initial guess orbital symmetries:
       Occupied  (A') (A") (A') (A') (A") (A') (A') (A') (A") (A")
                 (A') (A") (A')
       Virtual   (A') (A") (A') (A') (A') (A") (A") (A') (A") (A')
                 (A') (A') (A") (A") (A") (A') (A') (A') (A') (A")
                 (A") (A') (A") (A') (A") (A') (A') (A") (A') (A")
                 (A') (A") (A') (A") (A') (A') (A") (A") (A') (A')
                 (A") (A') (A') (A") (A') (A") (A') (A") (A') (A")
                 (A') (A") (A') (A') (A") (A") (A') (A') (A') (A")
                 (A") (A') (A') (A") (A") (A') (A') (A") (A') (A")
                 (A') (A") (A') (A") (A') (A") (A') (A") (A') (A")
                 (A') (A") (A') (A') (A") (A')
 Keep R1 ints in memory in symmetry-blocked form, NReq=36784670.
 Requested convergence on RMS density matrix=1.00D-08 within 128 cycles.
 Requested convergence on MAX density matrix=1.00D-06.
 Requested convergence on             energy=1.00D-06.
 No special actions if energy rises.
 SCF Done:  E(RwB97XD) =  -135.134508382     A.U. after    1 cycles
            NFock=  1  Conv=0.36D-09     -V/T= 2.0100
 DoSCS=F DFT=T ScalE2(SS,OS)=  1.000000  1.000000
 Range of M.O.s used for correlation:     1    99
 NBasis=    99 NAE=    13 NBE=    13 NFC=     0 NFV=     0
 NROrb=     99 NOA=    13 NOB=    13 NVA=    86 NVB=    86

 **** Warning!!: The largest alpha MO coefficient is  0.11435868D+02

 Symmetrizing basis deriv contribution to polar:
 IMax=3 JMax=2 DiffMx= 0.00D+00
 G2DrvN: will do    11 centers at a time, making    1 passes.
 Calling FoFCou, ICntrl=  3107 FMM=F I1Cent=   0 AccDes= 0.00D+00.
 End of G2Drv F.D. properties file   721 does not exist.
 End of G2Drv F.D. properties file   722 does not exist.
 End of G2Drv F.D. properties file   788 does not exist.
          IDoAtm=1111111111
          Differentiating once with respect to electric field.
                with respect to dipole field.
          Differentiating once with respect to nuclear coordinates.
 Keep R1 ints in memory in symmetry-blocked form, NReq=36789114.
          There are    21 degrees of freedom in the 1st order CPHF.  IDoFFX=4 NUNeed=    21.
     21 vectors produced by pass  0 Test12= 5.32D-15 4.76D-09 XBig12= 1.21D+01 1.19D+00.
 AX will form    21 AO Fock derivatives at one time.
     21 vectors produced by pass  1 Test12= 5.32D-15 4.76D-09 XBig12= 7.03D-01 2.31D-01.
     21 vectors produced by pass  2 Test12= 5.32D-15 4.76D-09 XBig12= 2.10D-02 5.40D-02.
     21 vectors produced by pass  3 Test12= 5.32D-15 4.76D-09 XBig12= 3.50D-04 6.73D-03.
     21 vectors produced by pass  4 Test12= 5.32D-15 4.76D-09 XBig12= 2.49D-06 2.60D-04.
     21 vectors produced by pass  5 Test12= 5.32D-15 4.76D-09 XBig12= 1.87D-08 2.73D-05.
     14 vectors produced by pass  6 Test12= 5.32D-15 4.76D-09 XBig12= 9.41D-11 1.82D-06.
      4 vectors produced by pass  7 Test12= 5.32D-15 4.76D-09 XBig12= 4.58D-13 1.20D-07.
      2 vectors produced by pass  8 Test12= 5.32D-15 4.76D-09 XBig12= 1.96D-15 7.90D-09.
 InvSVY:  IOpt=1 It=  1 EMax= 1.78D-15
 Solved reduced A of dimension   146 with    21 vectors.
 Isotropic polarizability for W=    0.000000       34.88 Bohr**3.
 End of Minotr F.D. properties file   721 does not exist.
 End of Minotr F.D. properties file   722 does not exist.
 End of Minotr F.D. properties file   788 does not exist.

 **********************************************************************

            Population analysis using the SCF Density.

 **********************************************************************

 Orbital symmetries:
       Occupied  (A') (A") (A') (A') (A") (A') (A') (A') (A") (A")
                 (A') (A") (A')
       Virtual   (A') (A") (A') (A') (A') (A") (A") (A') (A") (A')
                 (A') (A') (A") (A") (A") (A') (A') (A') (A') (A")
                 (A") (A') (A") (A') (A") (A') (A') (A") (A') (A")
                 (A') (A") (A') (A") (A') (A') (A") (A") (A') (A')
                 (A") (A') (A') (A") (A') (A") (A') (A") (A') (A")
                 (A') (A") (A') (A') (A") (A") (A') (A') (A') (A")
                 (A") (A') (A') (A") (A") (A') (A') (A") (A') (A")
                 (A') (A") (A') (A") (A') (A") (A') (A") (A') (A")
                 (A') (A") (A') (A') (A") (A')
 The electronic state is 1-A'.
 Alpha  occ. eigenvalues --  -14.44006 -10.31242 -10.31241  -1.00106  -0.79833
 Alpha  occ. eigenvalues --   -0.72252  -0.57772  -0.53014  -0.52101  -0.47011
 Alpha  occ. eigenvalues --   -0.44794  -0.44479  -0.30269
 Alpha virt. eigenvalues --    0.04220   0.06010   0.06453   0.07644   0.09363
 Alpha virt. eigenvalues --    0.09391   0.10629   0.12920   0.15734   0.16032
 Alpha virt. eigenvalues --    0.17124   0.19247   0.19254   0.20284   0.22427
 Alpha virt. eigenvalues --    0.22941   0.25732   0.28368   0.29071   0.29516
 Alpha virt. eigenvalues --    0.30849   0.31911   0.33816   0.35383   0.36094
 Alpha virt. eigenvalues --    0.41799   0.43561   0.44375   0.75390   0.79805
 Alpha virt. eigenvalues --    0.80667   0.81510   0.81680   0.88967   0.94280
 Alpha virt. eigenvalues --    0.97764   1.02610   1.06163   1.07700   1.09945
 Alpha virt. eigenvalues --    1.12114   1.17876   1.19462   1.21060   1.28846
 Alpha virt. eigenvalues --    1.40409   1.41845   1.49498   1.52749   1.67302
 Alpha virt. eigenvalues --    1.82795   1.89169   2.00690   2.09616   2.10079
 Alpha virt. eigenvalues --    2.13245   2.13330   2.17430   2.22340   2.22368
 Alpha virt. eigenvalues --    2.23402   2.29159   2.43227   2.46556   2.49294
 Alpha virt. eigenvalues --    2.53462   2.68506   2.70998   2.79249   2.80052
 Alpha virt. eigenvalues --    2.83209   2.86097   2.97591   2.98755   3.05437
 Alpha virt. eigenvalues --    3.07989   3.31250   3.34276   3.44256   3.52695
 Alpha virt. eigenvalues --    3.56860   3.58385   3.65552   4.28930   4.60223
 Alpha virt. eigenvalues --    4.63486
          Condensed to atoms (all electrons):
               1          2          3          4          5          6
     1  H    0.470823   0.009726  -0.005527  -0.008950   0.009726  -0.008950
     2  H    0.009726   0.552214  -0.016254  -0.052882   0.008676  -0.004957
     3  H   -0.005527  -0.016254   0.534574  -0.036952   0.000114   0.000851
     4  H   -0.008950  -0.052882  -0.036952   0.628872  -0.004957   0.009068
     5  H    0.009726   0.008676   0.000114  -0.004957   0.552214  -0.052882
     6  H   -0.008950  -0.004957   0.000851   0.009068  -0.052882   0.628872
     7  H   -0.005527   0.000114  -0.000286   0.000851  -0.016254  -0.036952
     8  C   -0.061878   0.406251   0.407858   0.436268  -0.014131   0.010209
     9  C   -0.061878  -0.014131   0.005500   0.010209   0.406251   0.436268
    10  N    0.366430  -0.041927  -0.042158  -0.108082  -0.041927  -0.108082
               7          8          9         10
     1  H   -0.005527  -0.061878  -0.061878   0.366430
     2  H    0.000114   0.406251  -0.014131  -0.041927
     3  H   -0.000286   0.407858   0.005500  -0.042158
     4  H    0.000851   0.436268   0.010209  -0.108082
     5  H   -0.016254  -0.014131   0.406251  -0.041927
     6  H   -0.036952   0.010209   0.436268  -0.108082
     7  H    0.534574   0.005500   0.407858  -0.042158
     8  C    0.005500   5.073173  -0.060740   0.194873
     9  C    0.407858  -0.060740   5.073173   0.194873
    10  N   -0.042158   0.194873   0.194873   6.993403
 Mulliken charges:
               1
     1  H    0.296006
     2  H    0.153170
     3  H    0.152279
     4  H    0.126554
     5  H    0.153170
     6  H    0.126554
     7  H    0.152279
     8  C   -0.397383
     9  C   -0.397383
    10  N   -0.365245
 Sum of Mulliken charges =  -0.00000
 Mulliken charges with hydrogens summed into heavy atoms:
               1
     8  C    0.034620
     9  C    0.034620
    10  N   -0.069239
 APT charges:
               1
     1  H    0.127779
     2  H   -0.025491
     3  H   -0.022483
     4  H   -0.095863
     5  H   -0.025491
     6  H   -0.095863
     7  H   -0.022483
     8  C    0.364681
     9  C    0.364681
    10  N   -0.569468
 Sum of APT charges =  -0.00000
 APT charges with hydrogens summed into heavy atoms:
               1
     8  C    0.220845
     9  C    0.220845
    10  N   -0.441689
 Electronic spatial extent (au):  <R**2>=            204.5069
 Charge=              0.0000 electrons
 Dipole moment (field-independent basis, Debye):
    X=             -1.0230    Y=             -0.4562    Z=             -0.0000  Tot=              1.1201
 Quadrupole moment (field-independent basis, Debye-Ang):
   XX=            -21.0428   YY=            -21.6216   ZZ=            -19.6255
   XY=             -2.3699   XZ=              0.0000   YZ=              0.0000
 Traceless Quadrupole moment (field-independent basis, Debye-Ang):
   XX=             -0.2795   YY=             -0.8583   ZZ=              1.1378
   XY=             -2.3699   XZ=              0.0000   YZ=              0.0000
 Octapole moment (field-independent basis, Debye-Ang**2):
  XXX=             -0.7111  YYY=              1.6741  ZZZ=             -0.0000  XYY=             -2.6207
  XXY=             -0.2146  XXZ=             -0.0000  XZZ=              0.4206  YZZ=              2.1255
  YYZ=              0.0000  XYZ=              0.0000
 Hexadecapole moment (field-independent basis, Debye-Ang**3):
 XXXX=            -39.5854 YYYY=            -61.9932 ZZZZ=           -179.4607 XXXY=             -1.4866
 XXXZ=              0.0000 YYYX=             -3.1530 YYYZ=             -0.0000 ZZZX=              0.0000
 ZZZY=             -0.0000 XXYY=            -15.6398 XXZZ=            -38.3722 YYZZ=            -39.8508
 XXYZ=             -0.0000 YYXZ=              0.0000 ZZXY=             -0.5397
 N-N= 8.417976922297D+01 E-N=-4.813428821784D+02  KE= 1.337957146982D+02
 Symmetry A'   KE= 9.200685333174D+01
 Symmetry A"   KE= 4.178886136651D+01
  Exact polarizability:      32.370       0.883      34.560       0.000      -0.000      37.703
 Approx polarizability:      33.054       0.170      34.655      -0.000       0.000      33.904
 Calling FoFJK, ICntrl=    100127 FMM=F ISym2X=1 I1Cent= 0 IOpClX= 0 NMat=1 NMatS=1 NMatT=0.
 Full mass-weighted force constant matrix:
 Low frequencies ---  -13.3246  -13.2420  -10.6265   -0.0007    0.0008    0.0011
 Low frequencies ---  233.1363  274.5518  394.8662
 Diagonal vibrational polarizability:
        2.4385282       7.0244289       1.5321317
 Harmonic frequencies (cm**-1), IR intensities (KM/Mole), Raman scattering
 activities (A**4/AMU), depolarization ratios for plane and unpolarized
 incident light, reduced masses (AMU), force constants (mDyne/A),
 and normal coordinates:
                      1                      2                      3
                     A"                     A'                     A'
 Frequencies --    233.1350               274.5516               394.8653
 Red. masses --      1.0329                 1.2046                 2.1790
 Frc consts  --      0.0331                 0.0535                 0.2002
 IR Inten    --      0.1795                 3.0722                 6.7728
  Atom  AN      X      Y      Z        X      Y      Z        X      Y      Z
     1   1     0.00   0.00  -0.01    -0.18  -0.10  -0.00    -0.15   0.01  -0.00
     2   1    -0.21  -0.32  -0.20    -0.06  -0.20  -0.28    -0.02  -0.12  -0.39
     3   1     0.37   0.01   0.02     0.47   0.03   0.02     0.05  -0.34   0.04
     4   1    -0.26   0.28   0.16    -0.10   0.19   0.28    -0.01  -0.07  -0.39
     5   1     0.21   0.32  -0.20    -0.06  -0.20   0.28    -0.02  -0.12   0.39
     6   1     0.26  -0.28   0.16    -0.10   0.19  -0.28    -0.01  -0.07   0.39
     7   1    -0.37  -0.01   0.02     0.47   0.03  -0.02     0.05  -0.34  -0.04
     8   6    -0.03   0.00   0.00     0.04   0.01   0.01     0.00  -0.06  -0.17
     9   6     0.03  -0.00   0.00     0.04   0.01  -0.01     0.00  -0.06   0.17
    10   7     0.00  -0.00   0.00    -0.11  -0.01   0.00     0.00   0.19  -0.00
                      4                      5                      6
                     A'                     A'                     A"
 Frequencies --    779.5228               966.3360              1047.7192
 Red. masses --      1.2272                 2.4215                 1.1724
 Frc consts  --      0.4393                 1.3323                 0.7582
 IR Inten    --    131.3971                 7.7347                 8.8104
  Atom  AN      X      Y      Z        X      Y      Z        X      Y      Z
     1   1     0.58   0.72   0.00     0.16   0.39   0.00    -0.00  -0.00   0.34
     2   1     0.07   0.11  -0.16     0.04  -0.01  -0.08    -0.05  -0.17   0.44
     3   1     0.05  -0.01  -0.03     0.06  -0.34   0.41    -0.12   0.26  -0.27
     4   1     0.10  -0.10   0.04     0.09  -0.18   0.10    -0.14   0.16   0.07
     5   1     0.07   0.11   0.16     0.04  -0.01   0.08     0.05   0.17   0.44
     6   1     0.10  -0.10  -0.04     0.09  -0.18  -0.10     0.14  -0.16   0.07
     7   1     0.05  -0.01   0.03     0.06  -0.34  -0.41     0.12  -0.26  -0.27
     8   6     0.00   0.01  -0.05    -0.01  -0.07   0.20     0.05  -0.06  -0.02
     9   6     0.00   0.01   0.05    -0.01  -0.07  -0.20    -0.05   0.06  -0.02
    10   7    -0.08  -0.07   0.00    -0.01   0.17  -0.00     0.00   0.00  -0.03
                      7                      8                      9
                     A"                     A'                     A"
 Frequencies --   1113.4763              1195.6627              1211.9570
 Red. masses --      1.2653                 1.4693                 3.7374
 Frc consts  --      0.9243                 1.2376                 3.2344
 IR Inten    --      0.3347                 8.1790                30.7163
  Atom  AN      X      Y      Z        X      Y      Z        X      Y      Z
     1   1     0.00   0.00  -0.18    -0.05  -0.11   0.00     0.00   0.00   0.61
     2   1     0.11   0.22  -0.06     0.13   0.31  -0.16     0.04   0.24  -0.14
     3   1     0.17   0.21  -0.20     0.19   0.18  -0.18     0.06   0.21  -0.27
     4   1     0.09  -0.23   0.49     0.11  -0.23   0.41     0.00   0.04   0.07
     5   1    -0.11  -0.22  -0.06     0.13   0.31   0.16    -0.04  -0.24  -0.14
     6   1    -0.09   0.23   0.49     0.11  -0.23  -0.41    -0.00  -0.04   0.07
     7   1    -0.17  -0.21  -0.20     0.19   0.18   0.18    -0.06  -0.21  -0.27
     8   6    -0.07  -0.08   0.00    -0.09  -0.05  -0.03    -0.04   0.10  -0.20
     9   6     0.07   0.08   0.00    -0.09  -0.05   0.03     0.04  -0.10  -0.20
    10   7    -0.00  -0.00  -0.03     0.10   0.06   0.00    -0.00  -0.00   0.35
                     10                     11                     12
                     A'                     A"                     A'
 Frequencies --   1277.0359              1453.4456              1483.1631
 Red. masses --      1.7344                 1.1695                 1.1824
 Frc consts  --      1.6665                 1.4556                 1.5325
 IR Inten    --      0.1335                 0.0245                 2.2098
  Atom  AN      X      Y      Z        X      Y      Z        X      Y      Z
     1   1     0.05   0.30   0.00    -0.00   0.00   0.23    -0.02  -0.03  -0.00
     2   1     0.03  -0.11   0.43    -0.11  -0.07   0.36    -0.06   0.01   0.45
     3   1    -0.11   0.21  -0.28     0.13  -0.34   0.25     0.21  -0.35   0.24
     4   1    -0.15   0.16   0.21     0.14  -0.14   0.29     0.09  -0.06   0.23
     5   1     0.03  -0.11  -0.43     0.11   0.07   0.36    -0.06   0.01  -0.45
     6   1    -0.15   0.16  -0.21    -0.14   0.14   0.29     0.09  -0.06  -0.23
     7   1    -0.11   0.21   0.28    -0.13   0.34   0.25     0.21  -0.35  -0.24
     8   6     0.06  -0.12  -0.03    -0.02   0.05  -0.06    -0.02   0.04  -0.08
     9   6     0.06  -0.12   0.03     0.02  -0.05  -0.06    -0.02   0.04   0.08
    10   7    -0.07   0.14   0.00    -0.00   0.00  -0.04     0.00  -0.01   0.00
                     13                     14                     15
                     A"                     A"                     A'
 Frequencies --   1487.5754              1500.1571              1509.5212
 Red. masses --      1.1354                 1.0800                 1.0631
 Frc consts  --      1.4803                 1.4320                 1.4272
 IR Inten    --      8.7603                 2.0273                13.4433
  Atom  AN      X      Y      Z        X      Y      Z        X      Y      Z
     1   1    -0.00  -0.00   0.45    -0.00   0.00   0.46     0.01   0.03  -0.00
     2   1     0.01   0.10   0.09    -0.18  -0.29  -0.30     0.08   0.17   0.21
     3   1     0.43   0.14  -0.04    -0.25   0.12  -0.06     0.46   0.13  -0.06
     4   1     0.09  -0.16  -0.38     0.20  -0.23   0.12    -0.04  -0.02  -0.43
     5   1    -0.01  -0.10   0.09     0.18   0.29  -0.30     0.08   0.17  -0.21
     6   1    -0.09   0.16  -0.38    -0.20   0.23   0.12    -0.04  -0.02   0.43
     7   1    -0.43  -0.14  -0.04     0.25  -0.12  -0.06     0.46   0.13   0.06
     8   6    -0.05   0.00   0.04    -0.01   0.04   0.03    -0.03  -0.02   0.03
     9   6     0.05  -0.00   0.04     0.01  -0.04   0.03    -0.03  -0.02  -0.03
    10   7    -0.00  -0.00  -0.05    -0.00  -0.00  -0.05    -0.02  -0.00   0.00
                     16                     17                     18
                     A'                     A"                     A"
 Frequencies --   1526.9691              1528.4745              2962.8819
 Red. masses --      1.0393                 1.0929                 1.0563
 Frc consts  --      1.4277                 1.5044                 5.4636
 IR Inten    --      3.5001                18.6899                56.6885
  Atom  AN      X      Y      Z        X      Y      Z        X      Y      Z
     1   1     0.00  -0.03  -0.00     0.00  -0.00   0.57     0.00  -0.00   0.01
     2   1     0.24   0.39  -0.06     0.18   0.31  -0.17    -0.14   0.07  -0.01
     3   1    -0.06  -0.19   0.12    -0.12  -0.15   0.12    -0.00  -0.09  -0.11
     4   1    -0.31   0.36   0.04    -0.23   0.24   0.12     0.51   0.43  -0.02
     5   1     0.24   0.39   0.06    -0.18  -0.31  -0.17     0.14  -0.07  -0.01
     6   1    -0.31   0.36  -0.04     0.23  -0.24   0.12    -0.51  -0.43  -0.02
     7   1    -0.06  -0.19  -0.12     0.12   0.15   0.12     0.00   0.09  -0.11
     8   6     0.01  -0.03  -0.01    -0.01  -0.02   0.01    -0.03  -0.03   0.01
     9   6     0.01  -0.03   0.01     0.01   0.02   0.01     0.03   0.03   0.01
    10   7     0.01  -0.03   0.00     0.00  -0.00  -0.07    -0.00   0.00   0.00
                     19                     20                     21
                     A'                     A'                     A"
 Frequencies --   2965.2195              3083.3461              3085.7960
 Red. masses --      1.0578                 1.0765                 1.0791
 Frc consts  --      5.4798                 6.0302                 6.0542
 IR Inten    --    166.4340                56.8738                22.7649
  Atom  AN      X      Y      Z        X      Y      Z        X      Y      Z
     1   1     0.00   0.00   0.00    -0.02   0.01  -0.00    -0.00   0.00   0.00
     2   1    -0.12   0.05  -0.01     0.52  -0.31   0.03     0.51  -0.31   0.02
     3   1    -0.00  -0.08  -0.11    -0.03   0.20   0.26    -0.03   0.20   0.26
     4   1     0.52   0.44  -0.03     0.11   0.10  -0.01     0.14   0.12  -0.01
     5   1    -0.12   0.05   0.01     0.52  -0.31  -0.03    -0.51   0.31   0.02
     6   1     0.52   0.44   0.03     0.11   0.10   0.01    -0.14  -0.12  -0.01
     7   1    -0.00  -0.08   0.11    -0.03   0.20  -0.26     0.03  -0.20   0.26
     8   6    -0.03  -0.03   0.01    -0.05   0.00  -0.02    -0.05  -0.00  -0.02
     9   6    -0.03  -0.03  -0.01    -0.05   0.00   0.02     0.05   0.00  -0.02
    10   7    -0.00  -0.00  -0.00     0.00  -0.00  -0.00     0.00  -0.00   0.00
                     22                     23                     24
                     A"                     A'                     A'
 Frequencies --   3140.2007              3140.7915              3601.6933
 Red. masses --      1.1020                 1.1013                 1.0750
 Frc consts  --      6.4027                 6.4007                 8.2161
 IR Inten    --     26.6605                37.1453                 0.4850
  Atom  AN      X      Y      Z        X      Y      Z        X      Y      Z
     1   1     0.00  -0.00  -0.01     0.02  -0.01  -0.00     0.77  -0.63  -0.00
     2   1    -0.30   0.17  -0.02    -0.29   0.17  -0.02     0.01  -0.01  -0.00
     3   1    -0.03   0.37   0.49    -0.03   0.37   0.49     0.00  -0.00  -0.01
     4   1     0.04   0.02  -0.01     0.05   0.02  -0.01     0.00   0.00   0.00
     5   1     0.30  -0.17  -0.02    -0.29   0.17   0.02     0.01  -0.01   0.00
     6   1    -0.04  -0.02  -0.01     0.05   0.02   0.01     0.00   0.00  -0.00
     7   1     0.03  -0.37   0.49    -0.03   0.37  -0.49     0.00  -0.00   0.01
     8   6     0.02  -0.05  -0.04     0.02  -0.05  -0.04    -0.00  -0.00   0.00
     9   6    -0.02   0.05  -0.04     0.02  -0.05   0.04    -0.00  -0.00  -0.00
    10   7    -0.00  -0.00   0.00    -0.00   0.00   0.00    -0.05   0.05   0.00

 -------------------
 - Thermochemistry -
 -------------------
 Temperature   298.150 Kelvin.  Pressure   1.00000 Atm.
 Atom     1 has atomic number  1 and mass   1.00783
 Atom     2 has atomic number  1 and mass   1.00783
 Atom     3 has atomic number  1 and mass   1.00783
 Atom     4 has atomic number  1 and mass   1.00783
 Atom     5 has atomic number  1 and mass   1.00783
 Atom     6 has atomic number  1 and mass   1.00783
 Atom     7 has atomic number  1 and mass   1.00783
 Atom     8 has atomic number  6 and mass  12.00000
 Atom     9 has atomic number  6 and mass  12.00000
 Atom    10 has atomic number  7 and mass  14.00307
 Molecular mass:    45.05785 amu.
 Principal axes and moments of inertia in atomic units:
                           1         2         3
     Eigenvalues --    51.96028 193.30038 218.92971
           X            0.00000  -0.12465   0.99220
           Y            0.00000   0.99220   0.12465
           Z            1.00000   0.00000   0.00000
 This molecule is an asymmetric top.
 Rotational symmetry number  1.
 Rotational temperatures (Kelvin)      1.66693     0.44808     0.39562
 Rotational constants (GHZ):          34.73309     9.33646     8.24347
 Zero-point vibrational energy     245016.1 (Joules/Mol)
                                   58.56026 (Kcal/Mol)
 Warning -- explicit consideration of   3 degrees of freedom as
           vibrations may cause significant error
 Vibrational temperatures:    335.43   395.02   568.12  1121.56  1390.34
          (Kelvin)           1507.43  1602.04  1720.29  1743.74  1837.37
                             2091.18  2133.94  2140.29  2158.39  2171.86
                             2196.97  2199.13  4262.93  4266.29  4436.25
                             4439.77  4518.05  4518.90  5182.03
 
 Zero-point correction=                           0.093322 (Hartree/Particle)
 Thermal correction to Energy=                    0.097693
 Thermal correction to Enthalpy=                  0.098637
 Thermal correction to Gibbs Free Energy=         0.067886
 Sum of electronic and zero-point Energies=           -135.041187
 Sum of electronic and thermal Energies=              -135.036815
 Sum of electronic and thermal Enthalpies=            -135.035871
 Sum of electronic and thermal Free Energies=         -135.066622
 
                     E (Thermal)             CV                S
                      KCal/Mol        Cal/Mol-Kelvin    Cal/Mol-Kelvin
 Total                   61.303             13.745             64.721
 Electronic               0.000              0.000              0.000
 Translational            0.889              2.981             37.342
 Rotational               0.889              2.981             22.313
 Vibrational             59.526              7.783              5.067
 Vibration     1          0.654              1.790              1.855
 Vibration     2          0.677              1.720              1.567
 Vibration     3          0.762              1.481              0.982
                       Q            Log10(Q)             Ln(Q)
 Total Bot       0.595075D-31        -31.225428        -71.899205
 Total V=0       0.500659D+12         11.699542         26.939191
 Vib (Bot)       0.298203D-42        -42.525488        -97.918554
 Vib (Bot)    1  0.843659D+00         -0.073833         -0.170007
 Vib (Bot)    2  0.702272D+00         -0.153495         -0.353435
 Vib (Bot)    3  0.453075D+00         -0.343830         -0.791699
 Vib (V=0)       0.250890D+01          0.399483          0.919843
 Vib (V=0)    1  0.148069D+01          0.170465          0.392511
 Vib (V=0)    2  0.136208D+01          0.134203          0.309015
 Vib (V=0)    3  0.117474D+01          0.069942          0.161048
 Electronic      0.100000D+01          0.000000          0.000000
 Translational   0.118880D+08          7.075110         16.291042
 Rotational      0.167861D+05          4.224950          9.728307
 ***** Axes restored to original set *****
 -------------------------------------------------------------------
 Center     Atomic                   Forces (Hartrees/Bohr)
 Number     Number              X              Y              Z
 -------------------------------------------------------------------
      1        1          -0.000036268   -0.000033252   -0.000000000
      2        1          -0.000015960   -0.000031854   -0.000028392
      3        1          -0.000069067   -0.000050862    0.000001624
      4        1          -0.000054614   -0.000000302    0.000036932
      5        1          -0.000015960   -0.000031854    0.000028392
      6        1          -0.000054614   -0.000000302   -0.000036932
      7        1          -0.000069067   -0.000050862   -0.000001624
      8        6           0.000140711    0.000100456   -0.000015304
      9        6           0.000140711    0.000100456    0.000015304
     10        7           0.000034127   -0.000001622   -0.000000000
 -------------------------------------------------------------------
 Cartesian Forces:  Max     0.000140711 RMS     0.000055198
 FormGI is forming the generalized inverse of G from B-inverse, IUseBI=4.

 GradGradGradGradGradGradGradGradGradGradGradGradGradGradGradGradGradGrad
 Berny optimization.
 Internal  Forces:  Max     0.000068850 RMS     0.000030868
 Search for a local minimum.
 Step number   1 out of a maximum of    2
 All quantities printed in internal units (Hartrees-Bohrs-Radians)
 Second derivative matrix not updated -- analytic derivatives used.
 ITU=  0
     Eigenvalues ---    0.00373   0.00382   0.02069   0.06259   0.06277
     Eigenvalues ---    0.06344   0.06380   0.10663   0.12900   0.13567
     Eigenvalues ---    0.15853   0.16676   0.17256   0.18355   0.24407
     Eigenvalues ---    0.31219   0.31312   0.33853   0.33948   0.34490
     Eigenvalues ---    0.34594   0.38268   0.39027   0.46314
 Angle between quadratic step and forces=  62.38 degrees.
 Linear search not attempted -- first point.
 Iteration  1 RMS(Cart)=  0.00079959 RMS(Int)=  0.00000059
 Iteration  2 RMS(Cart)=  0.00000056 RMS(Int)=  0.00000012
 ClnCor:  largest displacement from symmetrization is 1.10D-09 for atom     6.
 Variable       Old X    -DE/DX   Delta X   Delta X   Delta X     New X
                                 (Linear)    (Quad)   (Total)
    R1        1.91505   0.00001   0.00000   0.00007   0.00007   1.91512
    R2        2.07020   0.00000   0.00000  -0.00004  -0.00004   2.07015
    R3        2.06603  -0.00003   0.00000  -0.00007  -0.00007   2.06596
    R4        2.08822   0.00004   0.00000   0.00019   0.00019   2.08841
    R5        2.07020   0.00000   0.00000  -0.00004  -0.00004   2.07015
    R6        2.08822   0.00004   0.00000   0.00019   0.00019   2.08841
    R7        2.06603  -0.00003   0.00000  -0.00007  -0.00007   2.06596
    R8        2.74484  -0.00001   0.00000   0.00002   0.00002   2.74486
    R9        2.74484  -0.00001   0.00000   0.00002   0.00002   2.74486
    A1        1.87866   0.00003   0.00000   0.00060   0.00060   1.87926
    A2        1.87852  -0.00000   0.00000  -0.00010  -0.00010   1.87842
    A3        1.90677  -0.00000   0.00000   0.00005   0.00005   1.90682
    A4        1.89448  -0.00007   0.00000  -0.00079  -0.00079   1.89369
    A5        1.91583   0.00006   0.00000   0.00039   0.00039   1.91623
    A6        1.98635  -0.00001   0.00000  -0.00011  -0.00011   1.98624
    A7        1.87852  -0.00000   0.00000  -0.00010  -0.00010   1.87842
    A8        1.87866   0.00003   0.00000   0.00060   0.00060   1.87926
    A9        1.90677  -0.00000   0.00000   0.00005   0.00005   1.90682
   A10        1.89448  -0.00007   0.00000  -0.00079  -0.00079   1.89369
   A11        1.98635  -0.00001   0.00000  -0.00011  -0.00011   1.98624
   A12        1.91583   0.00006   0.00000   0.00039   0.00039   1.91623
   A13        1.91915  -0.00000   0.00000  -0.00044  -0.00044   1.91871
   A14        1.91915  -0.00000   0.00000  -0.00044  -0.00044   1.91871
   A15        1.97127  -0.00002   0.00000  -0.00040  -0.00040   1.97087
    D1       -2.99660  -0.00004   0.00000  -0.00259  -0.00259  -2.99919
    D2        1.13568  -0.00002   0.00000  -0.00142  -0.00142   1.13426
    D3       -0.94038   0.00002   0.00000  -0.00161  -0.00161  -0.94199
    D4       -3.09128   0.00004   0.00000  -0.00043  -0.00043  -3.09172
    D5        1.18668  -0.00003   0.00000  -0.00242  -0.00242   1.18425
    D6       -0.96423  -0.00001   0.00000  -0.00125  -0.00125  -0.96548
    D7        2.99660   0.00004   0.00000   0.00259   0.00259   2.99919
    D8       -1.13568   0.00002   0.00000   0.00142   0.00142  -1.13426
    D9       -1.18668   0.00003   0.00000   0.00242   0.00242  -1.18425
   D10        0.96423   0.00001   0.00000   0.00125   0.00125   0.96548
   D11        0.94038  -0.00002   0.00000   0.00161   0.00161   0.94199
   D12        3.09128  -0.00004   0.00000   0.00043   0.00043   3.09172
         Item               Value     Threshold  Converged?
 Maximum Force            0.000069     0.000450     YES
 RMS     Force            0.000031     0.000300     YES
 Maximum Displacement     0.002267     0.001800     NO 
 RMS     Displacement     0.000800     0.001200     YES
 Predicted change in Energy=-2.742788D-07
                           ----------------------------
                           ! Non-Optimized Parameters !
                           ! (Angstroms and Degrees)  !
 --------------------------                            --------------------------
 ! Name  Definition              Value          Derivative Info.                !
 --------------------------------------------------------------------------------
 ! R1    R(1,10)                 1.0134         -DE/DX =    0.0                 !
 ! R2    R(2,8)                  1.0955         -DE/DX =    0.0                 !
 ! R3    R(3,8)                  1.0933         -DE/DX =    0.0                 !
 ! R4    R(4,8)                  1.1051         -DE/DX =    0.0                 !
 ! R5    R(5,9)                  1.0955         -DE/DX =    0.0                 !
 ! R6    R(6,9)                  1.1051         -DE/DX =    0.0                 !
 ! R7    R(7,9)                  1.0933         -DE/DX =    0.0                 !
 ! R8    R(8,10)                 1.4525         -DE/DX =    0.0                 !
 ! R9    R(9,10)                 1.4525         -DE/DX =    0.0                 !
 ! A1    A(2,8,3)              107.6737         -DE/DX =    0.0                 !
 ! A2    A(2,8,4)              107.6257         -DE/DX =    0.0                 !
 ! A3    A(2,8,10)             109.2526         -DE/DX =    0.0                 !
 ! A4    A(3,8,4)              108.5003         -DE/DX =   -0.0001              !
 ! A5    A(3,8,10)             109.7916         -DE/DX =    0.0001              !
 ! A6    A(4,8,10)             113.8031         -DE/DX =    0.0                 !
 ! A7    A(5,9,6)              107.6257         -DE/DX =    0.0                 !
 ! A8    A(5,9,7)              107.6737         -DE/DX =    0.0                 !
 ! A9    A(5,9,10)             109.2526         -DE/DX =    0.0                 !
 ! A10   A(6,9,7)              108.5003         -DE/DX =   -0.0001              !
 ! A11   A(6,9,10)             113.8031         -DE/DX =    0.0                 !
 ! A12   A(7,9,10)             109.7916         -DE/DX =    0.0001              !
 ! A13   A(1,10,8)             109.9343         -DE/DX =    0.0                 !
 ! A14   A(1,10,9)             109.9343         -DE/DX =    0.0                 !
 ! A15   A(8,10,9)             112.9225         -DE/DX =    0.0                 !
 ! D1    D(2,8,10,1)          -171.841          -DE/DX =    0.0                 !
 ! D2    D(2,8,10,9)            64.9885         -DE/DX =    0.0                 !
 ! D3    D(3,8,10,1)           -53.9718         -DE/DX =    0.0                 !
 ! D4    D(3,8,10,9)          -177.1423         -DE/DX =    0.0                 !
 ! D5    D(4,8,10,1)            67.8528         -DE/DX =    0.0                 !
 ! D6    D(4,8,10,9)           -55.3177         -DE/DX =    0.0                 !
 ! D7    D(5,9,10,1)           171.841          -DE/DX =    0.0                 !
 ! D8    D(5,9,10,8)           -64.9885         -DE/DX =    0.0                 !
 ! D9    D(6,9,10,1)           -67.8528         -DE/DX =    0.0                 !
 ! D10   D(6,9,10,8)            55.3177         -DE/DX =    0.0                 !
 ! D11   D(7,9,10,1)            53.9718         -DE/DX =    0.0                 !
 ! D12   D(7,9,10,8)           177.1423         -DE/DX =    0.0                 !
 --------------------------------------------------------------------------------
 GradGradGradGradGradGradGradGradGradGradGradGradGradGradGradGradGradGrad


 ----------------------------------------------------------------------

 Electric dipole moment (input orientation):
 (Debye = 10**-18 statcoulomb cm , SI units = C m)
                  (au)            (Debye)         (10**-30 SI)
   Tot        0.440691D+00      0.112013D+01      0.373634D+01
   x         -0.402492D+00     -0.102303D+01     -0.341247D+01
   y         -0.179468D+00     -0.456162D+00     -0.152159D+01
   z          0.000000D+00      0.000000D+00      0.000000D+00

 Dipole polarizability, Alpha (input orientation).
 (esu units = cm**3 , SI units = C**2 m**2 J**-1)
 Alpha(0;0):
               (au)            (10**-24 esu)      (10**-40 SI)
   iso        0.348775D+02      0.516832D+01      0.575053D+01
   aniso      0.488918D+01      0.724502D+00      0.806117D+00
   xx         0.323697D+02      0.479669D+01      0.533704D+01
   yx         0.883172D+00      0.130873D+00      0.145615D+00
   yy         0.345596D+02      0.512120D+01      0.569810D+01
   zx         0.000000D+00      0.000000D+00      0.000000D+00
   zy         0.000000D+00      0.000000D+00      0.000000D+00
   zz         0.377034D+02      0.558707D+01      0.621645D+01

 ----------------------------------------------------------------------

 Dipole orientation:
     1         -1.08954709          2.44352281          0.40091083
     1          3.04770240         -0.93664357         -1.06024901
     1          3.29092638          2.30218390         -0.28747401
     1          2.59704041          0.04282501          2.11823298
     1         -1.34004798         -2.89310603         -1.06024901
     1         -1.76747902         -1.90327895          2.11823298
     1         -3.91191141         -0.90950330         -0.28747401
     6          2.25405901          0.56349345          0.12525957
     6         -1.92557932         -1.30017353          0.12525957
     7         -0.39965118          0.89629608         -0.49214822

 Electric dipole moment (dipole orientation):
 (Debye = 10**-18 statcoulomb cm , SI units = C m)
                  (au)            (Debye)         (10**-30 SI)
   Tot        0.440691D+00      0.112013D+01      0.373634D+01
   x          0.000000D+00      0.000000D+00      0.000000D+00
   y          0.000000D+00      0.000000D+00      0.000000D+00
   z          0.440691D+00      0.112013D+01      0.373634D+01

 Dipole polarizability, Alpha (dipole orientation).
 (esu units = cm**3 , SI units = C**2 m**2 J**-1)
 Alpha(0;0):
               (au)            (10**-24 esu)      (10**-40 SI)
   iso        0.348775D+02      0.516832D+01      0.575053D+01
   aniso      0.488918D+01      0.724502D+00      0.806117D+00
   xx         0.370128D+02      0.548474D+01      0.610259D+01
   yx         0.154878D+01      0.229505D+00      0.255359D+00
   yy         0.342300D+02      0.507236D+01      0.564376D+01
   zx         0.572069D+00      0.847719D-01      0.943214D-01
   zy        -0.128298D+01     -0.190118D+00     -0.211534D+00
   zz         0.333898D+02      0.494786D+01      0.550524D+01

 ----------------------------------------------------------------------
 Unable to Open any file for archive entry.
 1\1\GINC-R15C37\Freq\RwB97XD\6-31++G(d,p)\C2H7N1\KUBECKAJ\04-May-2022\
 0\\#N Geom=AllCheck Guess=TCheck SCRF=Check GenChk RwB97XD/6-31++G(d,p
 ) Freq\\1dma.xyz\\0,1\H,-0.770327,1.206659,0.\H,0.964253,-0.784821,1.2
 7113\H,-0.025367,0.430439,2.08666\H,-0.804267,-0.948741,1.2644\H,0.964
 253,-0.784821,-1.27113\H,-0.804267,-0.948741,-1.2644\H,-0.025367,0.430
 439,-2.08666\C,0.026373,-0.221911,1.21084\C,0.026373,-0.221911,-1.2108
 4\N,0.026373,0.580359,0.\\Version=ES64L-G16RevC.01\State=1-A'\HF=-135.
 1345084\RMSD=3.569e-10\RMSF=5.520e-05\ZeroPoint=0.0933217\Thermal=0.09
 76931\ETot=-135.0368153\HTot=-135.0358711\GTot=-135.0666222\Dipole=-0.
 4024922,-0.179468,0.\DipoleDeriv=0.0829709,0.1841853,0.,0.0836489,0.22
 49919,0.,0.,0.,0.0753743,-0.1119282,0.1081293,-0.0293536,0.0807612,-0.
 0120663,0.062549,0.0271114,-0.0037697,0.0475216,0.0798656,-0.007214,0.
 0235065,0.0101039,-0.0223655,-0.1182061,0.007332,-0.0631988,-0.1249477
 ,-0.1310976,-0.1801325,0.057682,-0.1405971,-0.1255506,0.1227751,-0.028
 0245,0.0131632,-0.0309393,-0.1119282,0.1081293,0.0293536,0.0807612,-0.
 0120663,-0.062549,-0.0271114,0.0037697,0.0475216,-0.1310976,-0.1801325
 ,-0.057682,-0.1405971,-0.1255506,-0.1227751,0.0280245,-0.0131632,-0.03
 09393,0.0798656,-0.007214,-0.0235065,0.0101039,-0.0223655,0.1182061,-0
 .007332,0.0631988,-0.1249477,0.3190777,0.0937675,0.0563207,0.1128049,0
 .3781714,-0.1930522,-0.0389611,-0.184278,0.3967925,0.3190777,0.0937675
 ,-0.0563207,0.1128049,0.3781714,0.1930523,0.0389611,0.184278,0.3967926
 ,-0.3948059,-0.213286,0.,-0.2097945,-0.6613698,0.,0.,0.,-0.6522285\Pol
 ar=32.3696752,0.8831723,34.5595521,0.,-0.0000002,37.7034166\Quadrupole
 =-0.2078191,-0.6381253,0.8459444,-1.7619784,0.,0.\PG=CS [SG(H1N1),X(C2
 H6)]\NImag=0\\0.28398496,-0.21633843,0.20062492,0.,0.,0.07311168,0.001
 13358,-0.00147515,0.00006176,0.26376926,0.00047424,-0.00030813,0.00430
 533,-0.12606931,0.12638283,-0.00149802,0.00274970,-0.00573713,0.009474
 96,-0.01234940,0.05511821,0.00011802,-0.00027572,-0.00046675,0.0001954
 4,0.01660380,0.02291825,0.04721226,0.00018476,0.00093949,-0.00056873,-
 0.00119490,-0.00904382,-0.01183663,-0.00831780,0.16145799,-0.00075135,
 -0.00045657,0.00014547,-0.00001115,0.00150692,0.00250813,-0.01174689,0
 .13805605,0.24082845,0.00119940,0.00038896,0.00051676,-0.02157786,-0.0
 1885445,-0.00104824,0.00186323,0.00245685,-0.00027184,0.20247182,-0.00
 073547,-0.00030387,0.00007205,0.01220434,0.01115340,-0.00063848,-0.015
 78416,-0.01145197,0.00017217,0.12984274,0.16212303,0.00069947,-0.00087
 637,0.00038290,0.00021956,-0.00091774,0.00057378,-0.02018927,-0.015016
 27,0.00175397,-0.00477630,-0.01009956,0.05607572,0.00113358,-0.0014751
 5,-0.00006176,-0.00021869,0.00002062,0.00088358,0.00028508,-0.00032957
 ,0.00012484,-0.00061435,-0.00010993,-0.00015813,0.26376926,0.00047424,
 -0.00030813,-0.00430533,0.00002062,0.00050855,-0.00060326,-0.00025143,
 0.00000277,0.00006455,-0.00002850,0.00010754,-0.00030891,-0.12606931,0
 .12638283,0.00149802,-0.00274970,-0.00573713,-0.00088358,0.00060326,-0
 .00006876,-0.00022941,0.00006554,0.00033731,-0.00021123,0.00023441,-0.
 00032605,-0.00947496,0.01234940,0.05511821,0.00119940,0.00038896,-0.00
 051676,-0.00061435,-0.00002850,0.00021123,0.00022354,0.00023841,-0.000
 14086,-0.00069916,0.00013386,-0.00174746,-0.02157786,-0.01885445,0.001
 04824,0.20247182,-0.00073547,-0.00030387,-0.00007205,-0.00010993,0.000
 10754,-0.00023441,0.00026741,0.00013294,-0.00004548,0.00013386,0.00108
 171,-0.00185313,0.01220434,0.01115340,0.00063848,0.12984274,0.16212303
 ,-0.00069946,0.00087637,0.00038290,0.00015813,0.00030891,-0.00032605,0
 .00043696,0.00037060,0.00017030,0.00174746,0.00185313,0.00064799,-0.00
 021956,0.00091774,0.00057378,0.00477630,0.01009956,0.05607572,0.000118
 02,-0.00027572,0.00046675,0.00028508,-0.00025143,0.00022941,0.00053659
 ,0.00000943,0.00001481,0.00022354,0.00026741,-0.00043696,0.00019544,0.
 01660380,-0.02291825,0.00186323,-0.01578416,0.02018927,0.04721226,0.00
 018476,0.00093949,0.00056873,-0.00032957,0.00000277,-0.00006554,0.0000
 0943,0.00064862,-0.00095416,0.00023841,0.00013294,-0.00037060,-0.00119
 490,-0.00904382,0.01183663,0.00245685,-0.01145197,0.01501627,-0.008317
 80,0.16145799,0.00075135,0.00045657,0.00014547,-0.00012484,-0.00006455
 ,0.00033731,-0.00001481,0.00095416,-0.00161346,0.00014086,0.00004548,0
 .00017030,0.00001115,-0.00150692,0.00250813,0.00027184,-0.00017217,0.0
 0175397,0.01174689,-0.13805605,0.24082845,-0.00215914,0.01703176,-0.02
 850625,-0.24789145,0.11081082,-0.00301120,-0.04989731,0.00885598,0.009
 98058,-0.19067400,-0.11323398,0.00074493,0.00080184,-0.00060178,0.0023
 6007,0.00159826,0.00213835,-0.00307373,0.00022595,0.00053652,0.0010821
 9,0.56486470,-0.00761647,-0.01351202,0.02204961,0.11537482,-0.11303357
 ,-0.00006587,0.00739897,-0.15486019,-0.12690653,-0.11224180,-0.1448422
 0,-0.00105045,-0.00004920,0.00050486,-0.00129459,0.00097582,0.00063862
 ,-0.00492426,0.00007799,-0.00167431,-0.00551636,-0.02714029,0.55883273
 ,0.00485974,0.00255691,-0.00127250,-0.00745504,0.00338185,-0.04901510,
 0.01047911,-0.13583509,-0.21370891,-0.00075173,-0.00236579,-0.05237158
 ,-0.00058546,0.00112764,0.00171169,0.00041560,0.00280593,0.00475875,0.
 00037065,-0.00289939,-0.00368242,0.00113516,0.05291810,0.54926689,-0.0
 0215914,0.01703176,0.02850625,0.00080184,-0.00060178,-0.00236007,0.000
 22595,0.00053652,-0.00108219,0.00159826,0.00213835,0.00307373,-0.24789
 145,0.11081082,0.00301120,-0.19067400,-0.11323398,-0.00074493,-0.04989
 731,0.00885598,-0.00998058,-0.00273007,-0.00569878,0.00386319,0.564864
 70,-0.00761647,-0.01351202,-0.02204961,-0.00004920,0.00050486,0.001294
 59,0.00007799,-0.00167431,0.00551636,0.00097582,0.00063862,0.00492426,
 0.11537482,-0.11303357,0.00006587,-0.11224180,-0.14484220,0.00105045,0
 .00739897,-0.15486019,0.12690653,-0.00569878,0.00934187,0.01906668,-0.
 02714029,0.55883273,-0.00485974,-0.00255691,-0.00127251,0.00058546,-0.
 00112764,0.00171169,-0.00037065,0.00289939,-0.00368242,-0.00041560,-0.
 00280593,0.00475875,0.00745504,-0.00338185,-0.04901510,0.00075173,0.00
 236579,-0.05237158,-0.01047911,0.13583509,-0.21370891,-0.00386319,-0.0
 1906668,-0.03909064,-0.00113516,-0.05291810,0.54926689,-0.28456868,0.1
 8499873,0.,0.00411715,0.01789597,-0.02579989,-0.00076280,-0.00243968,0
 .00388405,0.00620912,-0.01472317,0.02257044,0.00411715,0.01789597,0.02
 579989,0.00620912,-0.01472317,-0.02257044,-0.00076280,-0.00243968,-0.0
 0388405,-0.07413876,0.02891893,-0.01233122,-0.07413876,0.02891893,0.01
 233122,0.41371924,0.23172431,-0.17425586,0.,0.00162828,-0.01627443,0.0
 2174930,0.00027150,0.01384848,-0.01695331,-0.00291190,-0.01863921,0.02
 556877,0.00162828,-0.01627443,-0.02174930,-0.00291190,-0.01863921,-0.0
 2556876,0.00027150,0.01384848,0.01695331,0.00730139,-0.14139579,0.0592
 4316,0.00730139,-0.14139579,-0.05924316,-0.24430284,0.49917776,0.,0.,-
 0.06014915,-0.00202526,0.00435307,-0.00510208,-0.00081654,0.02091099,-
 0.02673885,0.00506987,0.01353253,-0.01166579,0.00202526,-0.00435307,-0
 .00510208,-0.00506987,-0.01353253,-0.01166579,0.00081654,-0.02091098,-
 0.02673885,0.02315145,0.08385702,-0.19659617,-0.02315144,-0.08385703,-
 0.19659618,0.,0.,0.54035493\\0.00003627,0.00003325,0.,0.00001596,0.000
 03185,0.00002839,0.00006907,0.00005086,-0.00000162,0.00005461,0.000000
 30,-0.00003693,0.00001596,0.00003185,-0.00002839,0.00005461,0.00000030
 ,0.00003693,0.00006907,0.00005086,0.00000162,-0.00014071,-0.00010046,0
 .00001530,-0.00014071,-0.00010046,-0.00001530,-0.00003413,0.00000162,0
 .\\\@
 The archive entry for this job was punched.


 A successful marriage requires falling in love
 many times, always with the same person.
                           -- Mignon McLaughlin
 Job cpu time:       0 days  0 hours  1 minutes 40.7 seconds.
 Elapsed time:       0 days  0 hours  0 minutes 13.5 seconds.
 File lengths (MBytes):  RWF=     11 Int=      0 D2E=      0 Chk=      2 Scr=      1
 Normal termination of Gaussian 16 at Wed May  4 01:13:13 2022.
