 7
 Free_Energy: -700.114269 Electronic_Energy: -700.126012016
H	-0.908397 -1.422380 -1.139107
H	0.908397 1.422380 -1.139107
O	-1.269705 0.048094 0.832439
O	1.269705 -0.048094 0.832439
O	0.000000 -1.246244 -0.852505
O	0.000000 1.246244 -0.852505
S	0.000000 0.000000 0.162454
