 Entering Gaussian System, Link 0=/appl/soft/chem/gaussian/G16RevC.01//g16/g16
 Initial command:
 /appl/soft/chem/gaussian/G16RevC.01//g16/l1.exe "/scratch/hvehkama/kubeckaj/OTHERS/Myllys19_synergy/Structures_synergy/calcs/DFT_freq/calc-LM/TMP/G1611196936_1sa1am/Gau-87959.inp" -scrdir="/scratch/hvehkama/kubeckaj/OTHERS/Myllys19_synergy/Structures_synergy/calcs/DFT_freq/calc-LM/TMP/G1611196936_1sa1am/"
 Entering Link 1 = /appl/soft/chem/gaussian/G16RevC.01//g16/l1.exe PID=     87964.
  
 Copyright (c) 1988-2019, Gaussian, Inc.  All Rights Reserved.
  
 This is part of the Gaussian(R) 16 program.  It is based on
 the Gaussian(R) 09 system (copyright 2009, Gaussian, Inc.),
 the Gaussian(R) 03 system (copyright 2003, Gaussian, Inc.),
 the Gaussian(R) 98 system (copyright 1998, Gaussian, Inc.),
 the Gaussian(R) 94 system (copyright 1995, Gaussian, Inc.),
 the Gaussian 92(TM) system (copyright 1992, Gaussian, Inc.),
 the Gaussian 90(TM) system (copyright 1990, Gaussian, Inc.),
 the Gaussian 88(TM) system (copyright 1988, Gaussian, Inc.),
 the Gaussian 86(TM) system (copyright 1986, Carnegie Mellon
 University), and the Gaussian 82(TM) system (copyright 1983,
 Carnegie Mellon University). Gaussian is a federally registered
 trademark of Gaussian, Inc.
  
 This software contains proprietary and confidential information,
 including trade secrets, belonging to Gaussian, Inc.
  
 This software is provided under written license and may be
 used, copied, transmitted, or stored only in accord with that
 written license.
  
 The following legend is applicable only to US Government
 contracts under FAR:
  
                    RESTRICTED RIGHTS LEGEND
  
 Use, reproduction and disclosure by the US Government is
 subject to restrictions as set forth in subparagraphs (a)
 and (c) of the Commercial Computer Software - Restricted
 Rights clause in FAR 52.227-19.
  
 Gaussian, Inc.
 340 Quinnipiac St., Bldg. 40, Wallingford CT 06492
  
  
 ---------------------------------------------------------------
 Warning -- This program may not be used in any manner that
 competes with the business of Gaussian, Inc. or will provide
 assistance to any competitor of Gaussian, Inc.  The licensee
 of this program is prohibited from giving any competitor of
 Gaussian, Inc. access to this program.  By using this program,
 the user acknowledges that Gaussian, Inc. is engaged in the
 business of creating and licensing software in the field of
 computational chemistry and represents and warrants to the
 licensee that it is not a competitor of Gaussian, Inc. and that
 it will not use this program in any manner prohibited above.
 ---------------------------------------------------------------
  

 Cite this work as:
 Gaussian 16, Revision C.01,
 M. J. Frisch, G. W. Trucks, H. B. Schlegel, G. E. Scuseria, 
 M. A. Robb, J. R. Cheeseman, G. Scalmani, V. Barone, 
 G. A. Petersson, H. Nakatsuji, X. Li, M. Caricato, A. V. Marenich, 
 J. Bloino, B. G. Janesko, R. Gomperts, B. Mennucci, H. P. Hratchian, 
 J. V. Ortiz, A. F. Izmaylov, J. L. Sonnenberg, D. Williams-Young, 
 F. Ding, F. Lipparini, F. Egidi, J. Goings, B. Peng, A. Petrone, 
 T. Henderson, D. Ranasinghe, V. G. Zakrzewski, J. Gao, N. Rega, 
 G. Zheng, W. Liang, M. Hada, M. Ehara, K. Toyota, R. Fukuda, 
 J. Hasegawa, M. Ishida, T. Nakajima, Y. Honda, O. Kitao, H. Nakai, 
 T. Vreven, K. Throssell, J. A. Montgomery, Jr., J. E. Peralta, 
 F. Ogliaro, M. J. Bearpark, J. J. Heyd, E. N. Brothers, K. N. Kudin, 
 V. N. Staroverov, T. A. Keith, R. Kobayashi, J. Normand, 
 K. Raghavachari, A. P. Rendell, J. C. Burant, S. S. Iyengar, 
 J. Tomasi, M. Cossi, J. M. Millam, M. Klene, C. Adamo, R. Cammi, 
 J. W. Ochterski, R. L. Martin, K. Morokuma, O. Farkas, 
 J. B. Foresman, and D. J. Fox, Gaussian, Inc., Wallingford CT, 2019.
 
 ******************************************
 Gaussian 16:  ES64L-G16RevC.01  3-Jul-2019
                 1-Apr-2022 
 ******************************************
 %Nprocshared=8
 Will use up to    8 processors via shared memory.
 %Mem=4000mb
 -----------------------
 # wb97xd 6-31++g** freq
 -----------------------
 1/10=4,30=1,38=1/1,3;
 2/12=2,17=6,18=5,40=1/2;
 3/5=1,6=6,7=1111,11=2,25=1,30=1,71=2,74=-58,140=1/1,2,3;
 4//1;
 5/5=2,38=5,98=1/2;
 8/6=4,10=90,11=11/1;
 11/6=1,8=1,9=11,15=111,16=1/1,2,10;
 10/6=1/2;
 6/7=2,8=2,9=2,10=2,28=1/1;
 7/8=1,10=1,25=1/1,2,3,16;
 1/10=4,30=1/3;
 99//99;
 ----------------------------------------------------------------------
 /scratch/hvehkama/kubeckaj/OTHERS/Myllys19_synergy/Structures_synergy/
 calcs/DFT_opt/calc-LM/1sa1am.xyz
 ----------------------------------------------------------------------
 Symbolic Z-matrix:
 Charge =  0 Multiplicity = 1
 N                    -2.76648   0.04032  -0.05176 
 H                    -3.45836  -0.68583  -0.20753 
 H                    -1.37628  -0.23229  -0.72688 
 H                    -3.1879    0.93507  -0.27996 
 H                    -2.52439   0.04552   0.93699 
 S                     0.61584  -0.117     0.09108 
 O                    -0.06131  -0.14583   1.36873 
 O                    -0.40626  -0.43635  -1.0498 
 O                     0.94688   1.44816  -0.1576 
 O                     1.82303  -0.86394  -0.15982 
 H                     1.64016   1.51091  -0.82965 
 

 GradGradGradGradGradGradGradGradGradGradGradGradGradGradGradGradGradGrad
 Berny optimization.
 Initialization pass.
 Trust Radius=3.00D-01 FncErr=1.00D-07 GrdErr=1.00D-07 EigMax=2.50D+02 EigMin=1.00D-04
 Number of steps in this run=      2 maximum allowed number of steps=      2.
 GradGradGradGradGradGradGradGradGradGradGradGradGradGradGradGradGradGrad

                          Input orientation:                          
 ---------------------------------------------------------------------
 Center     Atomic      Atomic             Coordinates (Angstroms)
 Number     Number       Type             X           Y           Z
 ---------------------------------------------------------------------
      1          7           0       -2.766484    0.040318   -0.051756
      2          1           0       -3.458359   -0.685825   -0.207532
      3          1           0       -1.376277   -0.232287   -0.726882
      4          1           0       -3.187901    0.935068   -0.279960
      5          1           0       -2.524394    0.045522    0.936992
      6         16           0        0.615837   -0.116996    0.091080
      7          8           0       -0.061314   -0.145831    1.368732
      8          8           0       -0.406255   -0.436353   -1.049801
      9          8           0        0.946883    1.448158   -0.157603
     10          8           0        1.823031   -0.863935   -0.159822
     11          1           0        1.640162    1.510908   -0.829651
 ---------------------------------------------------------------------
                    Distance matrix (angstroms):
                    1          2          3          4          5
     1  N    0.000000
     2  H    1.015008   0.000000
     3  H    1.569326   2.193282   0.000000
     4  H    1.015011   1.644897   2.201009   0.000000
     5  H    1.017967   1.648361   2.040546   1.646969   0.000000
     6  S    3.388989   4.124537   2.156588   3.963954   3.256229
     7  O    3.061108   3.783664   2.475520   3.696224   2.507943
     8  O    2.606528   3.176003   1.042527   3.195466   2.943818
     9  O    3.972696   4.895154   2.923191   4.168294   3.900678
    10  O    4.678996   5.284608   3.310001   5.325437   4.574955
    11  H    4.710232   5.586375   3.485426   4.893255   4.755198
                    6          7          8          9         10
     6  S    0.000000
     7  O    1.446292   0.000000
     8  O    1.564695   2.460221   0.000000
     9  O    1.618994   2.426306   2.485635   0.000000
    10  O    1.441592   2.530397   2.438156   2.472532   0.000000
    11  H    2.132383   3.236154   2.833393   0.967586   2.474266
                   11
    11  H    0.000000
 Stoichiometry    H5NO4S
 Framework group  C1[X(H5NO4S)]
 Deg. of freedom    27
 Full point group                 C1      NOp   1
 Largest Abelian subgroup         C1      NOp   1
 Largest concise Abelian subgroup C1      NOp   1
                         Standard orientation:                         
 ---------------------------------------------------------------------
 Center     Atomic      Atomic             Coordinates (Angstroms)
 Number     Number       Type             X           Y           Z
 ---------------------------------------------------------------------
      1          7           0       -2.766484    0.040318   -0.051756
      2          1           0       -3.458359   -0.685825   -0.207532
      3          1           0       -1.376277   -0.232287   -0.726882
      4          1           0       -3.187901    0.935068   -0.279960
      5          1           0       -2.524394    0.045522    0.936992
      6         16           0        0.615837   -0.116996    0.091080
      7          8           0       -0.061314   -0.145831    1.368732
      8          8           0       -0.406255   -0.436353   -1.049801
      9          8           0        0.946883    1.448158   -0.157603
     10          8           0        1.823031   -0.863935   -0.159822
     11          1           0        1.640162    1.510908   -0.829651
 ---------------------------------------------------------------------
 Rotational constants (GHZ):           4.8633373           1.8540820           1.8329509
 Standard basis: 6-31++G(d,p) (6D, 7F)
 There are   148 symmetry adapted cartesian basis functions of A   symmetry.
 There are   148 symmetry adapted basis functions of A   symmetry.
   148 basis functions,   256 primitive gaussians,   148 cartesian basis functions
    30 alpha electrons       30 beta electrons
       nuclear repulsion energy       375.4620545470 Hartrees.
 NAtoms=   11 NActive=   11 NUniq=   11 SFac= 1.00D+00 NAtFMM=   60 NAOKFM=F Big=F
 Integral buffers will be    131072 words long.
 Raffenetti 2 integral format.
 Two-electron integral symmetry is turned on.
 Nuclear repulsion after empirical dispersion term =      375.4586448165 Hartrees.
 One-electron integrals computed using PRISM.
 NBasis=   148 RedAO= T EigKep=  9.21D-04  NBF=   148
 NBsUse=   148 1.00D-06 EigRej= -1.00D+00 NBFU=   148
 ExpMin= 3.60D-02 ExpMax= 2.19D+04 ExpMxC= 3.30D+03 IAcc=3 IRadAn=         5 AccDes= 0.00D+00
 Harris functional with IExCor= 4639 and IRadAn=       5 diagonalized for initial guess.
 HarFok:  IExCor= 4639 AccDes= 0.00D+00 IRadAn=         5 IDoV= 1 UseB2=F ITyADJ=14
 ICtDFT=  3500011 ScaDFX=  1.000000  1.000000  1.000000  1.000000
 FoFCou: FMM=F IPFlag=           0 FMFlag=      100000 FMFlg1=           0
         NFxFlg=           0 DoJE=T BraDBF=F KetDBF=T FulRan=T
         wScrn=  0.000000 ICntrl=       500 IOpCl=  0 I1Cent=   200000004 NGrid=           0
         NMat0=    1 NMatS0=      1 NMatT0=    0 NMatD0=    1 NMtDS0=    0 NMtDT0=    0
 Petite list used in FoFCou.
 Keep R1 ints in memory in canonical form, NReq=131049495.
 Requested convergence on RMS density matrix=1.00D-08 within 128 cycles.
 Requested convergence on MAX density matrix=1.00D-06.
 Requested convergence on             energy=1.00D-06.
 No special actions if energy rises.
 SCF Done:  E(RwB97XD) =  -756.702646746     A.U. after   14 cycles
            NFock= 14  Conv=0.31D-08     -V/T= 2.0062
 DoSCS=F DFT=T ScalE2(SS,OS)=  1.000000  1.000000
 Range of M.O.s used for correlation:     1   148
 NBasis=   148 NAE=    30 NBE=    30 NFC=     0 NFV=     0
 NROrb=    148 NOA=    30 NOB=    30 NVA=   118 NVB=   118

 **** Warning!!: The largest alpha MO coefficient is  0.15067522D+02

 Symmetrizing basis deriv contribution to polar:
 IMax=3 JMax=2 DiffMx= 0.00D+00
 G2DrvN: will do    12 centers at a time, making    1 passes.
 Calling FoFCou, ICntrl=  3107 FMM=F I1Cent=   0 AccDes= 0.00D+00.
 End of G2Drv F.D. properties file   721 does not exist.
 End of G2Drv F.D. properties file   722 does not exist.
 End of G2Drv F.D. properties file   788 does not exist.
          IDoAtm=11111111111
          Differentiating once with respect to electric field.
                with respect to dipole field.
          Differentiating once with respect to nuclear coordinates.
 Keep R1 ints in memory in canonical form, NReq=131032575.
          There are    36 degrees of freedom in the 1st order CPHF.  IDoFFX=6 NUNeed=     3.
     33 vectors produced by pass  0 Test12= 9.83D-15 2.78D-09 XBig12= 1.79D+01 1.22D+00.
 AX will form    33 AO Fock derivatives at one time.
     33 vectors produced by pass  1 Test12= 9.83D-15 2.78D-09 XBig12= 3.18D+00 4.13D-01.
     33 vectors produced by pass  2 Test12= 9.83D-15 2.78D-09 XBig12= 8.22D-02 6.62D-02.
     33 vectors produced by pass  3 Test12= 9.83D-15 2.78D-09 XBig12= 9.68D-04 5.48D-03.
     33 vectors produced by pass  4 Test12= 9.83D-15 2.78D-09 XBig12= 7.49D-06 4.14D-04.
     33 vectors produced by pass  5 Test12= 9.83D-15 2.78D-09 XBig12= 4.59D-08 3.82D-05.
     29 vectors produced by pass  6 Test12= 9.83D-15 2.78D-09 XBig12= 3.11D-10 2.25D-06.
      7 vectors produced by pass  7 Test12= 9.83D-15 2.78D-09 XBig12= 1.73D-12 1.75D-07.
      3 vectors produced by pass  8 Test12= 9.83D-15 2.78D-09 XBig12= 1.02D-14 1.25D-08.
 InvSVY:  IOpt=1 It=  1 EMax= 2.66D-15
 Solved reduced A of dimension   237 with    36 vectors.
 Isotropic polarizability for W=    0.000000       45.78 Bohr**3.
 End of Minotr F.D. properties file   721 does not exist.
 End of Minotr F.D. properties file   722 does not exist.
 End of Minotr F.D. properties file   788 does not exist.

 **********************************************************************

            Population analysis using the SCF Density.

 **********************************************************************

 Orbital symmetries:
       Occupied  (A) (A) (A) (A) (A) (A) (A) (A) (A) (A) (A) (A)
                 (A) (A) (A) (A) (A) (A) (A) (A) (A) (A) (A) (A)
                 (A) (A) (A) (A) (A) (A)
       Virtual   (A) (A) (A) (A) (A) (A) (A) (A) (A) (A) (A) (A)
                 (A) (A) (A) (A) (A) (A) (A) (A) (A) (A) (A) (A)
                 (A) (A) (A) (A) (A) (A) (A) (A) (A) (A) (A) (A)
                 (A) (A) (A) (A) (A) (A) (A) (A) (A) (A) (A) (A)
                 (A) (A) (A) (A) (A) (A) (A) (A) (A) (A) (A) (A)
                 (A) (A) (A) (A) (A) (A) (A) (A) (A) (A) (A) (A)
                 (A) (A) (A) (A) (A) (A) (A) (A) (A) (A) (A) (A)
                 (A) (A) (A) (A) (A) (A) (A) (A) (A) (A) (A) (A)
                 (A) (A) (A) (A) (A) (A) (A) (A) (A) (A) (A) (A)
                 (A) (A) (A) (A) (A) (A) (A) (A) (A) (A)
 The electronic state is 1-A.
 Alpha  occ. eigenvalues --  -89.33739 -19.34306 -19.32132 -19.28841 -19.28696
 Alpha  occ. eigenvalues --  -14.49867  -8.31217  -6.26317  -6.26217  -6.26099
 Alpha  occ. eigenvalues --   -1.29213  -1.16533  -1.14189  -1.13309  -1.01635
 Alpha  occ. eigenvalues --   -0.77421  -0.69832  -0.61819  -0.61194  -0.61129
 Alpha  occ. eigenvalues --   -0.59456  -0.56176  -0.52468  -0.49017  -0.45922
 Alpha  occ. eigenvalues --   -0.45549  -0.42941  -0.41316  -0.40630  -0.39677
 Alpha virt. eigenvalues --    0.02441   0.04826   0.06343   0.07572   0.09355
 Alpha virt. eigenvalues --    0.11771   0.12337   0.13853   0.14515   0.15531
 Alpha virt. eigenvalues --    0.17221   0.17940   0.19263   0.20264   0.21584
 Alpha virt. eigenvalues --    0.21680   0.22894   0.24400   0.25355   0.25803
 Alpha virt. eigenvalues --    0.26753   0.28789   0.29590   0.31891   0.32032
 Alpha virt. eigenvalues --    0.33603   0.34224   0.34885   0.35745   0.36363
 Alpha virt. eigenvalues --    0.36986   0.37798   0.39685   0.41341   0.42159
 Alpha virt. eigenvalues --    0.44850   0.46346   0.48253   0.63337   0.67391
 Alpha virt. eigenvalues --    0.68871   0.70242   0.74077   0.85564   0.93745
 Alpha virt. eigenvalues --    0.95512   0.98843   1.01725   1.02640   1.07411
 Alpha virt. eigenvalues --    1.08458   1.15890   1.18151   1.19109   1.20609
 Alpha virt. eigenvalues --    1.23974   1.28716   1.30003   1.31005   1.32387
 Alpha virt. eigenvalues --    1.34612   1.34968   1.36059   1.39967   1.40688
 Alpha virt. eigenvalues --    1.42484   1.43848   1.46101   1.49704   1.52349
 Alpha virt. eigenvalues --    1.60965   1.62727   1.64520   1.67970   1.71506
 Alpha virt. eigenvalues --    1.76178   1.81928   1.84957   1.86808   1.88016
 Alpha virt. eigenvalues --    1.89056   1.89154   1.90222   1.95071   2.11202
 Alpha virt. eigenvalues --    2.14330   2.17785   2.21086   2.22144   2.27903
 Alpha virt. eigenvalues --    2.31584   2.35400   2.42233   2.44372   2.45618
 Alpha virt. eigenvalues --    2.58997   2.65504   2.68984   2.73744   2.75425
 Alpha virt. eigenvalues --    2.79562   2.81953   2.85344   2.96997   2.99321
 Alpha virt. eigenvalues --    3.01178   3.04427   3.30598   3.48540   3.49795
 Alpha virt. eigenvalues --    3.51043   3.66705   4.05953   4.20254   4.20575
 Alpha virt. eigenvalues --    4.29661   4.30956   4.40948
          Condensed to atoms (all electrons):
               1          2          3          4          5          6
     1  N    7.064817   0.323020   0.058615   0.324012   0.336230  -0.005601
     2  H    0.323020   0.391959  -0.000339  -0.030604  -0.026536   0.001018
     3  H    0.058615  -0.000339   0.249104  -0.001009  -0.005821   0.019206
     4  H    0.324012  -0.030604  -0.001009   0.396030  -0.029597  -0.002939
     5  H    0.336230  -0.026536  -0.005821  -0.029597   0.354457   0.002313
     6  S   -0.005601   0.001018   0.019206  -0.002939   0.002313  13.635892
     7  O   -0.016697  -0.000106  -0.016927   0.001491   0.006128   0.324553
     8  O   -0.085381   0.001282   0.197379   0.001246  -0.011456   0.030169
     9  O    0.001192  -0.000831  -0.007325   0.002024  -0.000916   0.030929
    10  O   -0.003490   0.000956   0.008223  -0.000895  -0.000068   0.311369
    11  H   -0.000220   0.000068   0.000765  -0.000327   0.000303   0.023091
               7          8          9         10         11
     1  N   -0.016697  -0.085381   0.001192  -0.003490  -0.000220
     2  H   -0.000106   0.001282  -0.000831   0.000956   0.000068
     3  H   -0.016927   0.197379  -0.007325   0.008223   0.000765
     4  H    0.001491   0.001246   0.002024  -0.000895  -0.000327
     5  H    0.006128  -0.011456  -0.000916  -0.000068   0.000303
     6  S    0.324553   0.030169   0.030929   0.311369   0.023091
     7  O    8.702115  -0.128195  -0.047015  -0.158607   0.009225
     8  O   -0.128195   8.770904  -0.038978  -0.048257  -0.007422
     9  O   -0.047015  -0.038978   8.590734  -0.111430   0.220153
    10  O   -0.158607  -0.048257  -0.111430   8.609018  -0.011493
    11  H    0.009225  -0.007422   0.220153  -0.011493   0.362020
 Mulliken charges:
               1
     1  N   -0.996497
     2  H    0.340112
     3  H    0.498129
     4  H    0.340569
     5  H    0.374965
     6  S    1.630002
     7  O   -0.675963
     8  O   -0.681289
     9  O   -0.638539
    10  O   -0.595326
    11  H    0.403837
 Sum of Mulliken charges =  -0.00000
 Mulliken charges with hydrogens summed into heavy atoms:
               1
     1  N    0.059149
     6  S    1.630002
     7  O   -0.675963
     8  O   -0.183160
     9  O   -0.234702
    10  O   -0.595326
 APT charges:
               1
     1  N   -0.597972
     2  H    0.194088
     3  H    0.718592
     4  H    0.192352
     5  H    0.237905
     6  S    2.571003
     7  O   -0.844506
     8  O   -1.119785
     9  O   -0.830806
    10  O   -0.840680
    11  H    0.319809
 Sum of APT charges =  -0.00000
 APT charges with hydrogens summed into heavy atoms:
               1
     1  N    0.026373
     6  S    2.571003
     7  O   -0.844506
     8  O   -0.401193
     9  O   -0.510996
    10  O   -0.840680
 Electronic spatial extent (au):  <R**2>=            739.2756
 Charge=             -0.0000 electrons
 Dipole moment (field-independent basis, Debye):
    X=             -4.8741    Y=              2.0564    Z=             -1.4769  Tot=              5.4925
 Quadrupole moment (field-independent basis, Debye-Ang):
   XX=            -27.7755   YY=            -42.8988   ZZ=            -45.8290
   XY=              4.4992   XZ=             -2.2000   YZ=             -2.9578
 Traceless Quadrupole moment (field-independent basis, Debye-Ang):
   XX=             11.0589   YY=             -4.0644   ZZ=             -6.9946
   XY=              4.4992   XZ=             -2.2000   YZ=             -2.9578
 Octapole moment (field-independent basis, Debye-Ang**2):
  XXX=            -54.4869  YYY=              2.2346  ZZZ=             -3.7132  XYY=             -4.6167
  XXY=             11.5931  XXZ=             -5.2291  XZZ=              1.1914  YZZ=              4.3433
  YYZ=             -3.3292  XYZ=             -4.2827
 Hexadecapole moment (field-independent basis, Debye-Ang**3):
 XXXX=           -417.0710 YYYY=           -155.6592 ZZZZ=           -159.8504 XXXY=             28.8721
 XXXZ=              4.6288 YYYX=              7.2826 YYYZ=             -7.8363 ZZZX=             -7.0497
 ZZZY=             -3.5333 XXYY=            -98.5005 XXZZ=           -110.3558 YYZZ=            -48.9628
 XXYZ=            -10.1256 YYXZ=             -4.9941 ZZXY=              4.6099
 N-N= 3.754586448165D+02 E-N=-2.538961601598D+03  KE= 7.520296092307D+02
  Exact polarizability:      54.532      -1.178      41.138      -2.900      -0.105      41.660
 Approx polarizability:      53.089      -2.572      44.548      -4.352       0.727      47.842
 Calling FoFJK, ICntrl=    100127 FMM=F ISym2X=0 I1Cent= 0 IOpClX= 0 NMat=1 NMatS=1 NMatT=0.
 Full mass-weighted force constant matrix:
 Low frequencies ---   -3.6458   -0.0031   -0.0028   -0.0018    4.4132   14.5550
 Low frequencies ---   40.6210   79.1394  117.0066
 Diagonal vibrational polarizability:
      111.8344655     115.8436809      49.3419062
 Harmonic frequencies (cm**-1), IR intensities (KM/Mole), Raman scattering
 activities (A**4/AMU), depolarization ratios for plane and unpolarized
 incident light, reduced masses (AMU), force constants (mDyne/A),
 and normal coordinates:
                      1                      2                      3
                      A                      A                      A
 Frequencies --     40.6137                79.1151               117.0044
 Red. masses --      4.8239                 1.0585                 3.8650
 Frc consts  --      0.0047                 0.0039                 0.0312
 IR Inten    --      6.6577                 0.5487                15.3537
  Atom  AN      X      Y      Z        X      Y      Z        X      Y      Z
     1   7    -0.06  -0.26   0.06    -0.00   0.03  -0.01     0.25   0.02   0.18
     2   1     0.16  -0.49   0.15     0.22  -0.27   0.42     0.16   0.04   0.46
     3   1    -0.04   0.07   0.01     0.00   0.01  -0.00     0.06  -0.04  -0.15
     4   1    -0.35  -0.41   0.01    -0.31  -0.22  -0.43     0.20   0.03   0.31
     5   1     0.01  -0.12   0.04     0.09   0.60  -0.04     0.62   0.04   0.09
     6  16    -0.01   0.05  -0.01     0.00  -0.01   0.00    -0.05  -0.01  -0.04
     7   8    -0.06   0.14  -0.04     0.01  -0.03   0.01    -0.20  -0.01  -0.12
     8   8    -0.02   0.22  -0.05    -0.00  -0.00   0.00     0.08  -0.02  -0.15
     9   8     0.26  -0.01   0.01    -0.02   0.00   0.02    -0.05   0.00   0.01
    10   8    -0.12  -0.15   0.03     0.01   0.01  -0.02    -0.01   0.01   0.13
    11   1     0.33  -0.13   0.07    -0.03   0.02   0.01     0.01   0.02   0.07
                      4                      5                      6
                      A                      A                      A
 Frequencies --    242.1649               275.3723               356.4921
 Red. masses --      1.5105                 2.8541                 1.9634
 Frc consts  --      0.0522                 0.1275                 0.1470
 IR Inten    --     98.0811                30.9330                10.4314
  Atom  AN      X      Y      Z        X      Y      Z        X      Y      Z
     1   7    -0.10   0.02   0.05     0.26  -0.05  -0.10    -0.02  -0.07   0.01
     2   1    -0.15   0.06   0.09     0.25  -0.04  -0.15    -0.43   0.28   0.27
     3   1     0.01  -0.07   0.02    -0.19   0.00   0.17    -0.03  -0.36   0.06
     4   1    -0.04   0.03  -0.01     0.34  -0.04  -0.22     0.51   0.09  -0.35
     5   1    -0.11   0.06   0.05     0.16  -0.00  -0.07    -0.04   0.20   0.01
     6  16     0.01   0.00  -0.01    -0.07   0.01  -0.00    -0.00   0.01  -0.01
     7   8    -0.05  -0.04  -0.04     0.04   0.02   0.07    -0.05   0.09  -0.04
     8   8    -0.00  -0.04   0.01    -0.11   0.01   0.11     0.01  -0.10   0.01
     9   8     0.04  -0.01  -0.05    -0.01   0.00  -0.02     0.08   0.02   0.14
    10   8     0.06   0.08   0.01    -0.07   0.02  -0.08    -0.02   0.01  -0.09
    11   1     0.70  -0.11   0.63     0.50  -0.09   0.51    -0.13   0.08  -0.06
                      7                      8                      9
                      A                      A                      A
 Frequencies --    376.8797               417.0401               466.0629
 Red. masses --      2.0739                 3.1196                 1.7102
 Frc consts  --      0.1736                 0.3197                 0.2189
 IR Inten    --     20.9824                86.4869                14.8602
  Atom  AN      X      Y      Z        X      Y      Z        X      Y      Z
     1   7     0.01  -0.06   0.02     0.06   0.03   0.02    -0.04  -0.02  -0.08
     2   1    -0.35   0.25   0.15     0.31  -0.15  -0.30    -0.27   0.10   0.41
     3   1    -0.07  -0.23   0.17    -0.10   0.11   0.24    -0.04  -0.04  -0.25
     4   1     0.54   0.07  -0.44    -0.10  -0.06  -0.04    -0.05   0.06   0.27
     5   1    -0.20   0.23   0.07    -0.25  -0.03   0.09     0.64  -0.08  -0.24
     6  16    -0.00  -0.00   0.00    -0.02  -0.00  -0.00    -0.04   0.02   0.05
     7   8     0.03  -0.11   0.01    -0.15  -0.09  -0.07     0.02  -0.06   0.08
     8   8    -0.02   0.17  -0.01    -0.11  -0.03   0.11     0.02  -0.00  -0.01
     9   8    -0.02  -0.01  -0.11     0.19  -0.05  -0.01     0.08  -0.03  -0.05
    10   8     0.03   0.00   0.10     0.09   0.17  -0.00    -0.03   0.08  -0.04
    11   1    -0.08  -0.07  -0.18    -0.34  -0.20  -0.57    -0.02  -0.23  -0.18
                     10                     11                     12
                      A                      A                      A
 Frequencies --    523.6761               540.5934               558.5553
 Red. masses --      4.9460                13.6892                 5.0660
 Frc consts  --      0.7992                 2.3571                 0.9312
 IR Inten    --     25.3749                28.4627                56.6841
  Atom  AN      X      Y      Z        X      Y      Z        X      Y      Z
     1   7    -0.04  -0.01  -0.09     0.02   0.01   0.02    -0.03  -0.02  -0.09
     2   1    -0.18   0.04   0.28     0.09  -0.03  -0.11    -0.23   0.08   0.35
     3   1    -0.31   0.05   0.07     0.10  -0.16  -0.00    -0.08   0.08   0.19
     4   1    -0.10   0.05   0.25     0.00  -0.02  -0.08    -0.01   0.06   0.21
     5   1     0.56  -0.10  -0.22    -0.18   0.02   0.07     0.59  -0.07  -0.23
     6  16    -0.01  -0.02  -0.16     0.01   0.27  -0.03     0.15  -0.01   0.03
     7   8     0.17   0.01  -0.08     0.04  -0.43  -0.06    -0.21  -0.01  -0.15
     8   8    -0.25  -0.03   0.04     0.07  -0.31   0.10    -0.02   0.10   0.28
     9   8     0.04   0.04   0.14     0.16   0.43  -0.08    -0.12   0.06  -0.07
    10   8     0.09  -0.00   0.26    -0.32  -0.24   0.11     0.06  -0.15  -0.10
    11   1    -0.07   0.31   0.06     0.07   0.28  -0.21    -0.03   0.25   0.04
                     13                     14                     15
                      A                      A                      A
 Frequencies --    815.0522               936.6271              1157.4989
 Red. masses --     15.4585                16.4530                 1.2031
 Frc consts  --      6.0505                 8.5041                 0.9497
 IR Inten    --    175.2820               290.0520                 9.0979
  Atom  AN      X      Y      Z        X      Y      Z        X      Y      Z
     1   7    -0.00  -0.01   0.00    -0.06   0.00   0.02    -0.00   0.03  -0.01
     2   1    -0.01  -0.00   0.02    -0.11   0.04   0.07     0.09  -0.05  -0.04
     3   1    -0.16   0.12  -0.11     0.29   0.12   0.04    -0.05  -0.54   0.19
     4   1     0.00  -0.00   0.02    -0.09   0.01   0.08    -0.11  -0.00   0.08
     5   1     0.00   0.00   0.00    -0.08   0.03   0.03     0.03  -0.05  -0.01
     6  16    -0.06  -0.36   0.10    -0.27  -0.24  -0.21    -0.01  -0.00  -0.02
     7   8    -0.11   0.07   0.20     0.13   0.04  -0.13    -0.03  -0.01   0.07
     8   8    -0.15  -0.01  -0.20     0.56   0.14   0.47     0.02   0.02  -0.00
     9   8     0.16   0.68  -0.12     0.06   0.14   0.00     0.03  -0.05  -0.03
    10   8     0.22  -0.05  -0.07    -0.14   0.14   0.06    -0.00   0.01  -0.01
    11   1     0.17   0.28  -0.16    -0.04   0.01  -0.11     0.00   0.79   0.04
                     16                     17                     18
                      A                      A                      A
 Frequencies --   1169.0755              1186.7718              1207.0172
 Red. masses --      1.1701                 1.2842                 5.0134
 Frc consts  --      0.9422                 1.0657                 4.3033
 IR Inten    --    177.9957               212.2188               314.1121
  Atom  AN      X      Y      Z        X      Y      Z        X      Y      Z
     1   7    -0.01  -0.04   0.02    -0.10   0.02   0.07     0.03  -0.04  -0.01
     2   1    -0.06   0.03  -0.01     0.33  -0.25  -0.38    -0.28   0.19   0.21
     3   1     0.07   0.70  -0.27    -0.04  -0.02  -0.00     0.03   0.66  -0.18
     4   1     0.20   0.01  -0.17     0.38   0.10  -0.39    -0.08  -0.05   0.08
     5   1     0.04   0.05   0.00     0.56  -0.10  -0.12    -0.33   0.11   0.09
     6  16     0.01  -0.02   0.02    -0.01   0.01  -0.02    -0.07   0.10  -0.15
     7   8     0.00  -0.01  -0.01    -0.02  -0.00   0.04    -0.13  -0.02   0.28
     8   8    -0.01  -0.02   0.00     0.02   0.00   0.01     0.06  -0.02   0.05
     9   8     0.03  -0.04  -0.03    -0.00   0.00   0.01    -0.00  -0.03   0.01
    10   8    -0.05   0.04   0.01     0.03  -0.02  -0.00     0.24  -0.15  -0.03
    11   1     0.01   0.58   0.03    -0.01  -0.10  -0.01    -0.03  -0.02  -0.02
                     19                     20                     21
                      A                      A                      A
 Frequencies --   1402.7180              1534.7643              1672.0948
 Red. masses --      4.9634                 1.2237                 1.0551
 Frc consts  --      5.7540                 1.6982                 1.7380
 IR Inten    --    221.0180               162.7991                15.7414
  Atom  AN      X      Y      Z        X      Y      Z        X      Y      Z
     1   7    -0.01  -0.01  -0.02    -0.02  -0.01  -0.03    -0.03   0.01  -0.05
     2   1    -0.05   0.01   0.09     0.04  -0.10   0.15     0.34  -0.43   0.42
     3   1     0.22   0.25   0.70     0.33   0.28   0.84    -0.08  -0.04  -0.20
     4   1     0.00   0.03   0.08     0.13   0.10   0.13     0.45   0.31   0.26
     5   1     0.03   0.02  -0.02     0.07   0.02  -0.05    -0.32  -0.06   0.04
     6  16     0.19  -0.07  -0.14    -0.05   0.01   0.03     0.01  -0.00  -0.01
     7   8    -0.12   0.00   0.21     0.02  -0.00  -0.03    -0.00   0.00   0.01
     8   8     0.00  -0.01  -0.04     0.02  -0.02  -0.05    -0.00   0.00   0.01
     9   8    -0.02   0.02   0.02     0.01  -0.01  -0.01    -0.00   0.00   0.00
    10   8    -0.24   0.14   0.05     0.03  -0.02  -0.01    -0.00   0.00   0.00
    11   1     0.01  -0.42  -0.01     0.00   0.08   0.00    -0.00  -0.01  -0.00
                     22                     23                     24
                      A                      A                      A
 Frequencies --   1683.8218              2441.0882              3516.3455
 Red. masses --      1.0607                 1.0910                 1.0277
 Frc consts  --      1.7718                 3.8303                 7.4867
 IR Inten    --     25.5907              2940.7261                 3.9417
  Atom  AN      X      Y      Z        X      Y      Z        X      Y      Z
     1   7    -0.01  -0.06  -0.00     0.01  -0.00  -0.00     0.03  -0.01  -0.03
     2   1     0.03   0.00  -0.39     0.03  -0.00  -0.01    -0.34  -0.39  -0.10
     3   1    -0.03  -0.04  -0.05     0.95  -0.19  -0.25     0.02  -0.00  -0.01
     4   1     0.11   0.14   0.48     0.03  -0.01  -0.01    -0.20   0.47  -0.14
     5   1     0.08   0.76  -0.03     0.02  -0.00  -0.02     0.18  -0.00   0.65
     6  16     0.00   0.00  -0.00    -0.00  -0.00  -0.01     0.00   0.00   0.00
     7   8    -0.00  -0.00   0.00    -0.00   0.00   0.01    -0.00  -0.00  -0.00
     8   8    -0.00   0.00   0.00    -0.06   0.02   0.03    -0.00   0.00   0.00
     9   8    -0.00  -0.00   0.00     0.00   0.00   0.00     0.00   0.00  -0.00
    10   8    -0.00   0.00   0.00     0.01  -0.00   0.00    -0.00   0.00  -0.00
    11   1     0.00  -0.00   0.00     0.00  -0.01  -0.01    -0.00   0.00   0.00
                     25                     26                     27
                      A                      A                      A
 Frequencies --   3649.8203              3671.3033              3861.4933
 Red. masses --      1.0906                 1.0915                 1.0660
 Frc consts  --      8.5599                 8.6682                 9.3650
 IR Inten    --     38.9695                26.7324               123.5231
  Atom  AN      X      Y      Z        X      Y      Z        X      Y      Z
     1   7    -0.05   0.01  -0.06    -0.01  -0.08   0.00     0.00  -0.00   0.00
     2   1     0.31   0.35   0.07     0.49   0.50   0.12    -0.00  -0.00  -0.00
     3   1     0.00  -0.00  -0.00    -0.00  -0.00   0.00    -0.01   0.00   0.00
     4   1     0.19  -0.43   0.10    -0.29   0.61  -0.17    -0.00   0.00  -0.00
     5   1     0.17   0.00   0.71    -0.00  -0.02   0.01    -0.00   0.00  -0.00
     6  16     0.00  -0.00   0.00     0.00  -0.00  -0.00    -0.00  -0.00   0.00
     7   8     0.00  -0.00  -0.00    -0.00   0.00   0.00     0.00   0.00  -0.00
     8   8    -0.00  -0.00  -0.00    -0.00  -0.00   0.00     0.00   0.00   0.00
     9   8    -0.00   0.00  -0.00     0.00  -0.00  -0.00    -0.04  -0.01   0.04
    10   8     0.00  -0.00  -0.00    -0.00  -0.00   0.00    -0.00   0.00  -0.00
    11   1     0.00   0.00  -0.00    -0.00   0.00   0.00     0.72   0.08  -0.69

 -------------------
 - Thermochemistry -
 -------------------
 Temperature   298.150 Kelvin.  Pressure   1.00000 Atm.
 Atom     1 has atomic number  7 and mass  14.00307
 Atom     2 has atomic number  1 and mass   1.00783
 Atom     3 has atomic number  1 and mass   1.00783
 Atom     4 has atomic number  1 and mass   1.00783
 Atom     5 has atomic number  1 and mass   1.00783
 Atom     6 has atomic number 16 and mass  31.97207
 Atom     7 has atomic number  8 and mass  15.99491
 Atom     8 has atomic number  8 and mass  15.99491
 Atom     9 has atomic number  8 and mass  15.99491
 Atom    10 has atomic number  8 and mass  15.99491
 Atom    11 has atomic number  1 and mass   1.00783
 Molecular mass:   114.99393 amu.
 Principal axes and moments of inertia in atomic units:
                           1         2         3
     Eigenvalues --   371.09111 973.38801 984.60970
           X            0.99992   0.00797  -0.01006
           Y           -0.01141   0.91143  -0.41129
           Z            0.00589   0.41137   0.91145
 This molecule is an asymmetric top.
 Rotational symmetry number  1.
 Rotational temperatures (Kelvin)      0.23340     0.08898     0.08797
 Rotational constants (GHZ):           4.86334     1.85408     1.83295
 Zero-point vibrational energy     202761.4 (Joules/Mol)
                                   48.46114 (Kcal/Mol)
 Warning -- explicit consideration of  12 degrees of freedom as
           vibrations may cause significant error
 Vibrational temperatures:     58.43   113.83   168.34   348.42   396.20
          (Kelvin)            512.91   542.25   600.03   670.56   753.45
                              777.79   803.64  1172.68  1347.60  1665.38
                             1682.04  1707.50  1736.63  2018.20  2208.18
                             2405.77  2422.64  3512.18  5059.24  5251.28
                             5282.19  5555.83
 
 Zero-point correction=                           0.077228 (Hartree/Particle)
 Thermal correction to Energy=                    0.085370
 Thermal correction to Enthalpy=                  0.086314
 Thermal correction to Gibbs Free Energy=         0.043929
 Sum of electronic and zero-point Energies=           -756.625419
 Sum of electronic and thermal Energies=              -756.617277
 Sum of electronic and thermal Enthalpies=            -756.616332
 Sum of electronic and thermal Free Energies=         -756.658718
 
                     E (Thermal)             CV                S
                      KCal/Mol        Cal/Mol-Kelvin    Cal/Mol-Kelvin
 Total                   53.571             26.859             89.208
 Electronic               0.000              0.000              0.000
 Translational            0.889              2.981             40.134
 Rotational               0.889              2.981             27.366
 Vibrational             51.793             20.898             21.707
 Vibration     1          0.594              1.981              5.229
 Vibration     2          0.600              1.963              3.913
 Vibration     3          0.608              1.935              3.149
 Vibration     4          0.658              1.776              1.787
 Vibration     5          0.677              1.719              1.562
 Vibration     6          0.732              1.562              1.137
 Vibration     7          0.747              1.519              1.052
 Vibration     8          0.780              1.433              0.902
 Vibration     9          0.823              1.325              0.749
 Vibration    10          0.879              1.198              0.601
 Vibration    11          0.896              1.160              0.564
 Vibration    12          0.914              1.121              0.527
                       Q            Log10(Q)             Ln(Q)
 Total Bot       0.622623D-20        -20.205775        -46.525516
 Total V=0       0.207248D+16         15.316491         35.267524
 Vib (Bot)       0.601725D-33        -33.220602        -76.493263
 Vib (Bot)    1  0.509418D+01          0.707074          1.628098
 Vib (Bot)    2  0.260344D+01          0.415548          0.956834
 Vib (Bot)    3  0.174777D+01          0.242485          0.558343
 Vib (Bot)    4  0.808897D+00         -0.092107         -0.212084
 Vib (Bot)    5  0.699881D+00         -0.154976         -0.356845
 Vib (Bot)    6  0.515347D+00         -0.287900         -0.662915
 Vib (Bot)    7  0.480787D+00         -0.318048         -0.732331
 Vib (Bot)    8  0.421987D+00         -0.374701         -0.862781
 Vib (Bot)    9  0.363110D+00         -0.439961         -1.013048
 Vib (Bot)   10  0.307191D+00         -0.512591         -1.180284
 Vib (Bot)   11  0.292911D+00         -0.533264         -1.227886
 Vib (Bot)   12  0.278649D+00         -0.554943         -1.277803
 Vib (V=0)       0.200292D+03          2.301664          5.299777
 Vib (V=0)    1  0.561866D+01          0.749632          1.726092
 Vib (V=0)    2  0.315102D+01          0.498451          1.147726
 Vib (V=0)    3  0.231789D+01          0.365092          0.840656
 Vib (V=0)    4  0.145095D+01          0.161654          0.372222
 Vib (V=0)    5  0.136014D+01          0.133582          0.307584
 Vib (V=0)    6  0.121804D+01          0.085662          0.197244
 Vib (V=0)    7  0.119365D+01          0.076878          0.177019
 Vib (V=0)    8  0.115427D+01          0.062309          0.143471
 Vib (V=0)    9  0.111794D+01          0.048418          0.111487
 Vib (V=0)   10  0.108683D+01          0.036161          0.083263
 Vib (V=0)   11  0.107948D+01          0.033215          0.076479
 Vib (V=0)   12  0.107240D+01          0.030358          0.069902
 Electronic      0.100000D+01          0.000000          0.000000
 Translational   0.484692D+08          7.685466         17.696440
 Rotational      0.213482D+06          5.329361         12.271307
 ***** Axes restored to original set *****
 -------------------------------------------------------------------
 Center     Atomic                   Forces (Hartrees/Bohr)
 Number     Number              X              Y              Z
 -------------------------------------------------------------------
      1        7          -0.000047984    0.000006393   -0.000020702
      2        1           0.000019301    0.000010553   -0.000002318
      3        1           0.000005777    0.000012630   -0.000010639
      4        1           0.000020482   -0.000020336    0.000004223
      5        1           0.000012004   -0.000001498    0.000022676
      6       16           0.000009903   -0.000029285   -0.000009330
      7        8          -0.000018316    0.000025989    0.000057645
      8        8          -0.000043339   -0.000001053   -0.000047282
      9        8           0.000015537    0.000019187   -0.000010917
     10        8           0.000050275   -0.000004239   -0.000008407
     11        1          -0.000023639   -0.000018340    0.000025050
 -------------------------------------------------------------------
 Cartesian Forces:  Max     0.000057645 RMS     0.000024270

 GradGradGradGradGradGradGradGradGradGradGradGradGradGradGradGradGradGrad
 Berny optimization.
 Search for a local minimum.
 Step number   1 out of a maximum of    2
 All quantities printed in internal units (Hartrees-Bohrs-Radians)
 Second derivative matrix not updated -- analytic derivatives used.
 ITU=  0
     Eigenvalues ---    0.00024   0.00048   0.00236   0.00355   0.00874
     Eigenvalues ---    0.01253   0.02158   0.03740   0.05531   0.06520
     Eigenvalues ---    0.09088   0.10255   0.13112   0.13808   0.14049
     Eigenvalues ---    0.15459   0.21955   0.25755   0.43735   0.54647
     Eigenvalues ---    0.63965   0.73437   0.98471   1.01898   1.06392
     Eigenvalues ---    1.16420   1.77327
 Angle between quadratic step and forces=  86.46 degrees.
 Linear search not attempted -- first point.
 B after Tr=    -0.000071    0.000268    0.000189
         Rot=    1.000000    0.000193    0.000021   -0.000042 Ang=   0.02 deg.
 Variable       Old X    -DE/DX   Delta X   Delta X   Delta X     New X
                                 (Linear)    (Quad)   (Total)
    X1       -5.22790  -0.00005   0.00000   0.00029   0.00022  -5.22768
    Y1        0.07619   0.00001   0.00000  -0.00013  -0.00034   0.07585
    Z1       -0.09780  -0.00002   0.00000   0.00015   0.00009  -0.09772
    X2       -6.53535   0.00002   0.00000  -0.00196  -0.00191  -6.53726
    Y2       -1.29602   0.00001   0.00000   0.00301   0.00258  -1.29345
    Z2       -0.39218  -0.00000   0.00000  -0.00410  -0.00368  -0.39586
    X3       -2.60079   0.00001   0.00000   0.00010   0.00013  -2.60066
    Y3       -0.43896   0.00001   0.00000  -0.00029  -0.00077  -0.43973
    Z3       -1.37361  -0.00001   0.00000  -0.00038  -0.00013  -1.37374
    X4       -6.02426   0.00002   0.00000   0.00369   0.00349  -6.02077
    Y4        1.76702  -0.00002   0.00000   0.00251   0.00207   1.76909
    Z4       -0.52905   0.00000   0.00000   0.00448   0.00373  -0.52532
    X5       -4.77041   0.00001   0.00000  -0.00004  -0.00019  -4.77060
    Y5        0.08602  -0.00000   0.00000  -0.00586  -0.00531   0.08072
    Z5        1.77066   0.00002   0.00000   0.00031   0.00026   1.77092
    X6        1.16376   0.00001   0.00000  -0.00014  -0.00020   1.16356
    Y6       -0.22109  -0.00003   0.00000   0.00005   0.00048  -0.22061
    Z6        0.17212  -0.00001   0.00000   0.00009   0.00041   0.17253
    X7       -0.11587  -0.00002   0.00000  -0.00023  -0.00039  -0.11625
    Y7       -0.27558   0.00003   0.00000   0.00093   0.00219  -0.27339
    Z7        2.58653   0.00006   0.00000   0.00015   0.00044   2.58697
    X8       -0.76771  -0.00004   0.00000   0.00006   0.00014  -0.76757
    Y8       -0.82459  -0.00000   0.00000  -0.00100  -0.00156  -0.82615
    Z8       -1.98384  -0.00005   0.00000  -0.00000   0.00047  -1.98336
    X9        1.78935   0.00002   0.00000  -0.00070  -0.00099   1.78836
    Y9        2.73662   0.00002   0.00000   0.00004   0.00035   2.73697
    Z9       -0.29783  -0.00001   0.00000  -0.00098  -0.00177  -0.29960
   X10        3.44503   0.00005   0.00000   0.00033   0.00041   3.44544
   Y10       -1.63260  -0.00000   0.00000   0.00048   0.00093  -1.63167
   Z10       -0.30202  -0.00001   0.00000   0.00071   0.00168  -0.30034
   X11        3.09946  -0.00002   0.00000  -0.00047  -0.00071   3.09875
   Y11        2.85520  -0.00002   0.00000  -0.00054  -0.00061   2.85459
   Z11       -1.56781   0.00003   0.00000  -0.00070  -0.00148  -1.56930
         Item               Value     Threshold  Converged?
 Maximum Force            0.000058     0.000450     YES
 RMS     Force            0.000024     0.000300     YES
 Maximum Displacement     0.005306     0.001800     NO 
 RMS     Displacement     0.001764     0.001200     NO 
 Predicted change in Energy=-3.498697D-08
 GradGradGradGradGradGradGradGradGradGradGradGradGradGradGradGradGradGrad


 ----------------------------------------------------------------------

 Electric dipole moment (input orientation):
 (Debye = 10**-18 statcoulomb cm , SI units = C m)
                  (au)            (Debye)         (10**-30 SI)
   Tot        0.216090D+01      0.549246D+01      0.183209D+02
   x         -0.191764D+01     -0.487414D+01     -0.162584D+02
   y          0.809034D+00      0.205636D+01      0.685928D+01
   z         -0.581058D+00     -0.147690D+01     -0.492641D+01

 Dipole polarizability, Alpha (input orientation).
 (esu units = cm**3 , SI units = C**2 m**2 J**-1)
 Alpha(0;0):
               (au)            (10**-24 esu)      (10**-40 SI)
   iso        0.457765D+02      0.678338D+01      0.754753D+01
   aniso      0.142166D+02      0.210669D+01      0.234400D+01
   xx         0.545319D+02      0.808080D+01      0.899110D+01
   yx        -0.117820D+01     -0.174591D+00     -0.194259D+00
   yy         0.411379D+02      0.609600D+01      0.678272D+01
   zx        -0.290019D+01     -0.429764D+00     -0.478177D+00
   zy        -0.105075D+00     -0.155705D-01     -0.173245D-01
   zz         0.416599D+02      0.617336D+01      0.686878D+01

 ----------------------------------------------------------------------

 Dipole orientation:
     7         -1.87653576          1.33772153          4.69418718
     1         -2.47060419          3.01090448          5.41985812
     1          0.11738894          1.58573450          2.51301421
     1         -1.35322307          0.20364917          6.14990083
     1         -3.35852686          0.50963905          3.78946423
    16          0.23086007         -0.17249371         -1.16180870
     8         -2.41146219         -0.69291203         -0.69586141
     8          1.25335139          1.67725697          0.90600808
     8          1.65967402         -2.79133103         -0.48324490
     8          1.14746067          0.66327542         -3.58723112
     1          3.31474866         -2.76437255         -1.25997528

 Electric dipole moment (dipole orientation):
 (Debye = 10**-18 statcoulomb cm , SI units = C m)
                  (au)            (Debye)         (10**-30 SI)
   Tot        0.216090D+01      0.549246D+01      0.183209D+02
   x          0.000000D+00      0.000000D+00      0.000000D+00
   y          0.000000D+00      0.000000D+00      0.000000D+00
   z          0.216090D+01      0.549246D+01      0.183209D+02

 Dipole polarizability, Alpha (dipole orientation).
 (esu units = cm**3 , SI units = C**2 m**2 J**-1)
 Alpha(0;0):
               (au)            (10**-24 esu)      (10**-40 SI)
   iso        0.457765D+02      0.678338D+01      0.754753D+01
   aniso      0.142166D+02      0.210669D+01      0.234400D+01
   xx         0.452441D+02      0.670448D+01      0.745974D+01
   yx        -0.101329D+01     -0.150154D+00     -0.167069D+00
   yy         0.409419D+02      0.606696D+01      0.675040D+01
   zx        -0.622402D+01     -0.922305D+00     -0.102620D+01
   zy         0.117210D+01      0.173688D+00      0.193254D+00
   zz         0.511437D+02      0.757871D+01      0.843245D+01

 ----------------------------------------------------------------------
 Unable to Open any file for archive entry.
 1\1\GINC-R05C47\Freq\RwB97XD\6-31++G(d,p)\H5N1O4S1\KUBECKAJ\01-Apr-202
 2\0\\# wb97xd 6-31++g** freq\\/scratch/hvehkama/kubeckaj/OTHERS/Myllys
 19_synergy/Structures_synergy/calcs/DFT_opt/calc-LM/1sa1am.xyz\\0,1\N,
 -2.766484,0.040318,-0.051756\H,-3.458359,-0.685825,-0.207532\H,-1.3762
 77,-0.232287,-0.726882\H,-3.187901,0.935068,-0.27996\H,-2.524394,0.045
 522,0.936992\S,0.615837,-0.116996,0.09108\O,-0.061314,-0.145831,1.3687
 32\O,-0.406255,-0.436353,-1.049801\O,0.946883,1.448158,-0.157603\O,1.8
 23031,-0.863935,-0.159822\H,1.640162,1.510908,-0.829651\\Version=ES64L
 -G16RevC.01\State=1-A\HF=-756.7026467\RMSD=3.054e-09\RMSF=2.427e-05\Ze
 roPoint=0.0772277\Thermal=0.0853702\ETot=-756.6172766\HTot=-756.616332
 4\GTot=-756.6587181\Dipole=-1.9176354,0.8090344,-0.5810579\DipoleDeriv
 =-0.9880323,0.0677591,0.1388981,0.1118406,-0.3406844,-0.026817,0.26057
 ,-0.035865,-0.4651995,0.1505278,-0.0569129,-0.0287579,-0.0428458,0.189
 0067,0.0160831,-0.0099366,0.026632,0.2427305,1.6017174,-0.1225357,-0.1
 618134,-0.2409503,0.273432,0.0106671,-0.4725895,0.03058,0.2806255,0.18
 9981,0.0467047,-0.0357944,0.0425209,0.1450988,0.0013263,-0.0187418,-0.
 0140908,0.2419753,0.3698313,-0.0126571,-0.0201064,-0.0200771,0.1935554
 ,-0.0010852,-0.007917,-0.0003912,0.1503284,2.9074708,0.0357371,-0.0383
 877,0.1665516,2.4594865,-0.0609805,0.1921447,-0.0468186,2.3460504,-0.8
 725806,-0.0174237,0.271476,0.0125912,-0.580896,-0.0242033,0.1370112,0.
 0460125,-1.0800409,-1.9003112,-0.0513066,-0.2472078,0.0148913,-0.57809
 2,-0.0604391,-0.2399724,-0.1274148,-0.8809503,-0.6821119,-0.2655523,0.
 0168728,-0.3099146,-1.2608283,0.178263,0.0150646,0.2593356,-0.5494772,
 -1.1191951,0.3019567,0.0750956,0.2228628,-0.8050645,0.0015751,0.113166
 ,-0.0659808,-0.5977814,0.3427029,0.0742309,0.0297251,0.0425296,0.30498
 59,-0.0343896,0.0312006,-0.0719988,0.3117393\Polar=54.5319135,-1.17819
 8,41.1378576,-2.9001908,-0.1050748,41.6598648\Quadrupole=8.222057,-3.0
 217583,-5.2002986,3.3450112,-1.6356096,-2.1990712\PG=C01 [X(H5N1O4S1)]
 \NImag=0\\0.42958065,0.05416985,0.68953836,0.19144310,-0.03835113,0.55
 566797,-0.23069494,-0.21388619,-0.06536212,0.23067624,-0.18072424,-0.2
 5070660,-0.03912219,0.20684769,0.26924612,-0.04162715,-0.02150793,-0.0
 5570901,0.05826930,0.04212004,0.05679085,0.01731366,-0.00946745,-0.016
 14590,-0.00108080,-0.00245174,-0.00085121,0.19826996,-0.00859063,-0.02
 500545,0.00320529,-0.00777312,0.00341671,0.00600598,-0.02587486,0.0547
 8440,-0.01561116,0.00350439,-0.01858516,-0.00399834,0.00259838,0.00305
 576,-0.02634683,0.01705146,0.08353537,-0.11322945,0.16188903,-0.062436
 76,0.01111214,-0.02777744,0.00891571,0.00298683,0.00720163,-0.00565863
 ,0.10919263,0.13070276,-0.35938357,0.08292208,0.01712490,-0.02179675,0
 .00660186,0.00247801,-0.00081597,-0.00088084,-0.14835669,0.37949350,-0
 .04301238,0.05816358,-0.06468538,0.00467209,-0.00677297,0.00065138,-0.
 00336934,-0.00502756,0.00384113,0.05372122,-0.08490554,0.06808388,-0.0
 4914143,-0.00556271,-0.06959531,-0.00718703,0.00153384,-0.02682849,0.0
 0742790,-0.00081867,0.00906500,-0.00533680,-0.00062427,-0.01528872,0.0
 5828345,-0.00763228,-0.06392372,-0.00448858,-0.00501661,0.00135688,-0.
 03138943,-0.00094726,0.00081256,-0.00201790,0.00824926,0.00237533,0.03
 792677,0.00495870,0.06051140,-0.11190777,0.00262314,-0.41818069,0.0047
 9033,0.00223918,-0.00296631,0.00107342,-0.00041472,-0.00641640,0.00309
 865,-0.00415683,-0.00597706,0.10306285,-0.00031830,0.43405210,0.012619
 27,-0.00144015,-0.00158114,0.00033806,-0.00079512,-0.00045953,-0.05004
 715,-0.00465935,-0.02639283,0.00031547,0.00077343,-0.00035689,-0.00565
 423,0.00083276,0.00291966,0.99982821,0.00728061,-0.00419247,-0.0038842
 3,-0.00058847,0.00024427,0.00011651,-0.01369138,0.00684754,0.01038729,
 0.00209762,0.00081606,-0.00039905,0.00007761,0.00178148,-0.00001498,-0
 .18066237,0.61914403,0.01888073,-0.00500620,-0.01405274,-0.00038296,-0
 .00019725,-0.00078486,-0.05085288,0.01041580,0.02567380,0.00004594,0.0
 0023624,-0.00054481,0.00964593,-0.00067902,0.00165420,-0.23324451,0.04
 090061,0.89159017,-0.00279516,-0.00023433,-0.00337290,-0.00056943,0.00
 041748,-0.00049321,-0.00299184,0.00047269,0.00552980,-0.00061494,-0.00
 023777,-0.00025547,0.00421285,-0.00060112,-0.00137310,-0.21468948,0.00
 028104,0.21823393,0.20239012,-0.00047919,0.00215713,0.00057936,0.00044
 455,-0.00024981,0.00016548,0.00213513,-0.00248309,-0.00120137,-0.00067
 085,-0.00022441,-0.00019153,-0.00034832,-0.00144642,0.00001891,0.00334
 221,-0.08853108,0.00240359,0.00775760,0.06777163,-0.00446634,0.0008733
 6,0.00383709,0.00005642,0.00012289,0.00008609,0.01783929,-0.00219136,-
 0.00547474,0.00013208,-0.00005115,0.00000353,-0.00332893,0.00018895,-0
 .00194246,0.21893972,0.00686804,-0.50212499,-0.24428785,-0.01333221,0.
 54582587,-0.05704787,0.01366038,0.02438925,-0.00257759,0.00259319,0.00
 291241,-0.18784464,0.04101409,0.07327211,-0.00450133,-0.00152582,0.003
 67187,-0.00432083,0.00019352,-0.00123560,-0.17685793,-0.01413608,-0.07
 930537,0.01791802,-0.00223681,-0.00128951,0.45684993,0.00762448,0.0094
 8124,-0.00174350,0.00251079,-0.00132167,-0.00198964,0.04197897,-0.0343
 9861,-0.02685840,-0.00156450,0.00002324,0.00095966,0.00020469,-0.00055
 822,-0.00007489,-0.01714603,-0.08180286,-0.03839307,-0.00246732,0.0162
 7068,-0.00239237,-0.02052910,0.09314651,0.01053146,-0.00147721,0.00779
 495,0.00185835,-0.00099590,-0.00129542,0.06791241,-0.02478820,-0.07539
 336,0.00209650,0.00018767,-0.00149151,-0.00351746,0.00042007,0.0003563
 9,-0.07846004,-0.03645209,-0.20381604,-0.02328053,-0.00851781,-0.03446
 412,0.02899569,0.08022028,0.28759553,-0.00200373,0.00038368,0.00051553
 ,0.00008861,0.00005954,0.00002984,0.00522572,-0.00092320,-0.00108003,0
 .00015920,-0.00008678,0.00001783,0.00075998,-0.00012574,-0.00020980,-0
 .08847446,-0.03325003,0.02056074,-0.00055413,-0.02521137,0.01554672,-0
 .00560296,-0.02781778,-0.00590842,0.35334396,-0.00353929,0.00193262,0.
 00122163,0.00024679,-0.00000838,-0.00008317,0.00852948,-0.00571012,-0.
 00333931,-0.00077888,-0.00044035,0.00032066,0.00094130,-0.00059203,-0.
 00015608,-0.00243555,-0.20884691,0.00603072,-0.00667235,-0.00141547,0.
 00286642,-0.02150579,-0.01048811,-0.00224897,0.05804050,0.29592819,-0.
 00083899,0.00019462,0.00127865,0.00007066,-0.00000763,-0.00001129,0.00
 260394,-0.00244011,-0.00318541,0.00019909,0.00009749,-0.00008531,-0.00
 143009,0.00026318,-0.00027825,0.02092161,0.02750440,-0.08315101,0.0163
 2105,0.03431076,-0.01023259,-0.01369984,-0.01609233,0.01164651,-0.2854
 4005,-0.04061576,0.32149210,-0.00520488,0.00058997,0.00244032,-0.00008
 467,0.00032041,0.00013764,0.01190845,-0.00049683,-0.00939820,-0.000016
 44,-0.00025014,0.00013742,0.00102037,0.00004054,-0.00027134,-0.4732378
 1,0.23856857,0.08688459,-0.00579419,0.01367946,0.00373524,-0.03776282,
 0.01623462,0.00165114,0.01068208,0.00088352,0.00123487,0.50206235,0.00
 055619,0.00017686,-0.00006711,0.00009145,-0.00017365,-0.00003198,-0.00
 146587,0.00197011,0.00033992,-0.00024622,-0.00007187,-0.00001403,-0.00
 037457,-0.00022022,0.00016598,0.23809640,-0.23873350,-0.04781247,0.002
 73215,0.01486321,0.00371760,-0.00034172,0.01189539,-0.00433036,0.02951
 244,-0.03181285,-0.00242906,-0.27270514,0.23840003,-0.00304440,0.00094
 795,0.00261172,0.00004294,0.00000763,0.00014948,0.00727468,-0.00178337
 ,-0.00683143,-0.00010329,-0.00003166,0.00012170,-0.00191849,0.00006779
 ,-0.00027527,0.08910239,-0.04869076,-0.11019431,0.03277813,-0.01596967
 ,0.00210594,-0.03471264,0.00914338,0.01221381,-0.00305985,0.00526634,0
 .01587275,-0.08545493,0.05534334,0.08421961,0.00060387,-0.00010209,-0.
 00029407,-0.00002060,-0.00002362,-0.00000532,-0.00116808,0.00044825,0.
 00061910,-0.00006730,0.00000237,0.00006238,-0.00006424,0.00004823,0.00
 005272,-0.00413997,-0.00597713,0.00953386,0.00348817,0.00158760,-0.002
 87684,0.00174801,0.00097117,-0.00187910,-0.27362427,-0.03370973,0.2600
 5775,-0.00357243,0.00414489,-0.00090453,0.27681682,0.00063174,-0.00007
 441,-0.00027162,-0.00000179,-0.00000711,-0.00000773,-0.00122304,0.0005
 8192,0.00041639,-0.00004297,0.00002478,-0.00006000,0.00001241,-0.00009
 704,0.00008858,-0.03590623,-0.00672657,0.03210107,-0.00144807,-0.00671
 237,0.00332984,0.00281413,-0.00224760,-0.00201748,-0.00058127,-0.03854
 658,-0.00078555,0.00313502,0.00370648,-0.00430097,0.03261006,0.0500985
 1,-0.00034709,0.00003542,0.00002260,-0.00001667,0.00000782,0.00003334,
 0.00086241,-0.00003320,-0.00021955,-0.00001050,-0.00001932,0.00008244,
 0.00013371,0.00002647,-0.00002627,0.00861155,0.00366426,-0.00424942,0.
 00020015,0.00173450,0.00238039,-0.00299837,-0.00277912,-0.00314674,0.2
 5902749,0.03073752,-0.25334615,-0.00109673,-0.00488181,0.00000599,-0.2
 6436594,-0.02849253,0.25846337\\0.00004798,-0.00000639,0.00002070,-0.0
 0001930,-0.00001055,0.00000232,-0.00000578,-0.00001263,0.00001064,-0.0
 0002048,0.00002034,-0.00000422,-0.00001200,0.00000150,-0.00002268,-0.0
 0000990,0.00002929,0.00000933,0.00001832,-0.00002599,-0.00005765,0.000
 04334,0.00000105,0.00004728,-0.00001554,-0.00001919,0.00001092,-0.0000
 5027,0.00000424,0.00000841,0.00002364,0.00001834,-0.00002505\\\@
 The archive entry for this job was punched.


 There was a great rattling of the words for the fewness of ideas.
                   -- Charles Baxter in Gryphon
 Job cpu time:       0 days  0 hours  6 minutes 12.6 seconds.
 Elapsed time:       0 days  0 hours  0 minutes 48.1 seconds.
 File lengths (MBytes):  RWF=     34 Int=      0 D2E=      0 Chk=      3 Scr=      1
 Normal termination of Gaussian 16 at Fri Apr  1 14:07:24 2022.
