 Entering Gaussian System, Link 0=/appl/soft/chem/gaussian/G16RevC.01//g16/g16
 Initial command:
 /appl/soft/chem/gaussian/G16RevC.01//g16/l1.exe "/scratch/hvehkama/kubeckaj/OTHERS/Myllys19_synergy/Structures_synergy/calcs/DFT_freq/calc-LM/TMP/G1611196934_1sa1dma/Gau-251008.inp" -scrdir="/scratch/hvehkama/kubeckaj/OTHERS/Myllys19_synergy/Structures_synergy/calcs/DFT_freq/calc-LM/TMP/G1611196934_1sa1dma/"
 Entering Link 1 = /appl/soft/chem/gaussian/G16RevC.01//g16/l1.exe PID=    251011.
  
 Copyright (c) 1988-2019, Gaussian, Inc.  All Rights Reserved.
  
 This is part of the Gaussian(R) 16 program.  It is based on
 the Gaussian(R) 09 system (copyright 2009, Gaussian, Inc.),
 the Gaussian(R) 03 system (copyright 2003, Gaussian, Inc.),
 the Gaussian(R) 98 system (copyright 1998, Gaussian, Inc.),
 the Gaussian(R) 94 system (copyright 1995, Gaussian, Inc.),
 the Gaussian 92(TM) system (copyright 1992, Gaussian, Inc.),
 the Gaussian 90(TM) system (copyright 1990, Gaussian, Inc.),
 the Gaussian 88(TM) system (copyright 1988, Gaussian, Inc.),
 the Gaussian 86(TM) system (copyright 1986, Carnegie Mellon
 University), and the Gaussian 82(TM) system (copyright 1983,
 Carnegie Mellon University). Gaussian is a federally registered
 trademark of Gaussian, Inc.
  
 This software contains proprietary and confidential information,
 including trade secrets, belonging to Gaussian, Inc.
  
 This software is provided under written license and may be
 used, copied, transmitted, or stored only in accord with that
 written license.
  
 The following legend is applicable only to US Government
 contracts under FAR:
  
                    RESTRICTED RIGHTS LEGEND
  
 Use, reproduction and disclosure by the US Government is
 subject to restrictions as set forth in subparagraphs (a)
 and (c) of the Commercial Computer Software - Restricted
 Rights clause in FAR 52.227-19.
  
 Gaussian, Inc.
 340 Quinnipiac St., Bldg. 40, Wallingford CT 06492
  
  
 ---------------------------------------------------------------
 Warning -- This program may not be used in any manner that
 competes with the business of Gaussian, Inc. or will provide
 assistance to any competitor of Gaussian, Inc.  The licensee
 of this program is prohibited from giving any competitor of
 Gaussian, Inc. access to this program.  By using this program,
 the user acknowledges that Gaussian, Inc. is engaged in the
 business of creating and licensing software in the field of
 computational chemistry and represents and warrants to the
 licensee that it is not a competitor of Gaussian, Inc. and that
 it will not use this program in any manner prohibited above.
 ---------------------------------------------------------------
  

 Cite this work as:
 Gaussian 16, Revision C.01,
 M. J. Frisch, G. W. Trucks, H. B. Schlegel, G. E. Scuseria, 
 M. A. Robb, J. R. Cheeseman, G. Scalmani, V. Barone, 
 G. A. Petersson, H. Nakatsuji, X. Li, M. Caricato, A. V. Marenich, 
 J. Bloino, B. G. Janesko, R. Gomperts, B. Mennucci, H. P. Hratchian, 
 J. V. Ortiz, A. F. Izmaylov, J. L. Sonnenberg, D. Williams-Young, 
 F. Ding, F. Lipparini, F. Egidi, J. Goings, B. Peng, A. Petrone, 
 T. Henderson, D. Ranasinghe, V. G. Zakrzewski, J. Gao, N. Rega, 
 G. Zheng, W. Liang, M. Hada, M. Ehara, K. Toyota, R. Fukuda, 
 J. Hasegawa, M. Ishida, T. Nakajima, Y. Honda, O. Kitao, H. Nakai, 
 T. Vreven, K. Throssell, J. A. Montgomery, Jr., J. E. Peralta, 
 F. Ogliaro, M. J. Bearpark, J. J. Heyd, E. N. Brothers, K. N. Kudin, 
 V. N. Staroverov, T. A. Keith, R. Kobayashi, J. Normand, 
 K. Raghavachari, A. P. Rendell, J. C. Burant, S. S. Iyengar, 
 J. Tomasi, M. Cossi, J. M. Millam, M. Klene, C. Adamo, R. Cammi, 
 J. W. Ochterski, R. L. Martin, K. Morokuma, O. Farkas, 
 J. B. Foresman, and D. J. Fox, Gaussian, Inc., Wallingford CT, 2019.
 
 ******************************************
 Gaussian 16:  ES64L-G16RevC.01  3-Jul-2019
                 1-Apr-2022 
 ******************************************
 %Nprocshared=8
 Will use up to    8 processors via shared memory.
 %Mem=4000mb
 -----------------------
 # wb97xd 6-31++g** freq
 -----------------------
 1/10=4,30=1,38=1/1,3;
 2/12=2,17=6,18=5,40=1/2;
 3/5=1,6=6,7=1111,11=2,25=1,30=1,71=2,74=-58,140=1/1,2,3;
 4//1;
 5/5=2,38=5,98=1/2;
 8/6=4,10=90,11=11/1;
 11/6=1,8=1,9=11,15=111,16=1/1,2,10;
 10/6=1/2;
 6/7=2,8=2,9=2,10=2,28=1/1;
 7/8=1,10=1,25=1/1,2,3,16;
 1/10=4,30=1/3;
 99//99;
 ----------------------------------------------------------------------
 /scratch/hvehkama/kubeckaj/OTHERS/Myllys19_synergy/Structures_synergy/
 calcs/DFT_opt/calc-LM/1sa1dma.xyz
 ----------------------------------------------------------------------
 Symbolic Z-matrix:
 Charge =  0 Multiplicity = 1
 H                     1.22541  -0.07975   0.8063 
 S                    -1.29039  -0.14659   0.01118 
 O                    -1.87775   1.3826    0.03209 
 O                    -0.43584  -0.2131   -1.20991 
 O                    -2.44858  -1.02249  -0.00931 
 O                    -0.45075  -0.17517   1.23345 
 H                    -2.73043   1.36634  -0.4218 
 N                     1.90053  -0.01496   0.00741 
 H                     1.18595  -0.0929   -0.76347 
 C                     2.82332  -1.16426  -0.00448 
 H                     3.46922  -1.12388   0.87411 
 H                     3.4298   -1.1344   -0.91106 
 H                     2.2332   -2.08059   0.01323 
 C                     2.53822   1.31484  -0.017 
 H                     3.17648   1.4304    0.86045 
 H                     1.7529    2.07106  -0.00479 
 H                     3.13417   1.41572  -0.92539 
 

 GradGradGradGradGradGradGradGradGradGradGradGradGradGradGradGradGradGrad
 Berny optimization.
 Initialization pass.
 Trust Radius=3.00D-01 FncErr=1.00D-07 GrdErr=1.00D-07 EigMax=2.50D+02 EigMin=1.00D-04
 Number of steps in this run=      2 maximum allowed number of steps=      2.
 GradGradGradGradGradGradGradGradGradGradGradGradGradGradGradGradGradGrad

                          Input orientation:                          
 ---------------------------------------------------------------------
 Center     Atomic      Atomic             Coordinates (Angstroms)
 Number     Number       Type             X           Y           Z
 ---------------------------------------------------------------------
      1          1           0        1.225412   -0.079746    0.806300
      2         16           0       -1.290391   -0.146593    0.011183
      3          8           0       -1.877749    1.382602    0.032089
      4          8           0       -0.435841   -0.213097   -1.209908
      5          8           0       -2.448576   -1.022491   -0.009313
      6          8           0       -0.450754   -0.175174    1.233451
      7          1           0       -2.730428    1.366344   -0.421801
      8          7           0        1.900527   -0.014960    0.007405
      9          1           0        1.185951   -0.092904   -0.763465
     10          6           0        2.823320   -1.164256   -0.004481
     11          1           0        3.469223   -1.123884    0.874113
     12          1           0        3.429797   -1.134402   -0.911061
     13          1           0        2.233197   -2.080589    0.013233
     14          6           0        2.538216    1.314837   -0.017002
     15          1           0        3.176484    1.430402    0.860448
     16          1           0        1.752896    2.071062   -0.004794
     17          1           0        3.134174    1.415717   -0.925392
 ---------------------------------------------------------------------
                    Distance matrix (angstroms):
                    1          2          3          4          5
     1  H    0.000000
     2  S    2.639308   0.000000
     3  O    3.516742   1.638250   0.000000
     4  O    2.615844   1.491892   2.483528   0.000000
     5  O    3.879714   1.452243   2.472252   2.479445   0.000000
     6  O    1.732367   1.483154   2.430278   2.443699   2.500740
     7  H    4.387263   2.133110   0.966096   2.894974   2.440516
     8  N    1.047955   3.193634   4.028543   2.641917   4.464314
     9  H    1.570316   2.595233   3.492318   1.686407   3.826573
    10  C    2.094478   4.237747   5.346763   3.602761   5.273804
    11  H    2.475785   4.934944   5.965030   4.519093   5.984235
    12  H    2.986794   4.909835   5.949360   3.985131   5.948188
    13  H    2.376543   4.019455   5.375307   3.479564   4.799904
    14  C    2.084740   4.098146   4.416758   3.550017   5.507382
    15  H    2.467825   4.812602   5.121888   4.476199   6.197941
    16  H    2.358408   3.765613   3.695527   3.385299   5.217514
    17  H    2.979688   4.784847   5.102670   3.934335   6.160451
                    6          7          8          9         10
     6  O    0.000000
     7  H    3.211394   0.000000
     8  N    2.656573   4.851594   0.000000
     9  H    2.583262   4.193348   1.054009   0.000000
    10  C    3.637351   6.117369   1.473964   2.098768   0.000000
    11  H    4.049123   6.805608   2.107535   2.992977   1.091214
    12  H    4.536268   6.666444   2.106038   2.478174   1.091143
    13  H    3.510432   6.058727   2.092254   2.377157   1.090057
    14  C    3.566189   5.284423   1.474993   2.089871   2.495465
    15  H    3.984201   6.044822   2.108274   2.986599   2.757730
    16  H    3.381553   4.557490   2.091275   2.362151   3.407798
    17  H    4.476968   5.886391   2.106854   2.469358   2.756985
                   11         12         13         14         15
    11  H    0.000000
    12  H    1.785640   0.000000
    13  H    1.784421   1.783659   0.000000
    14  C    2.758300   2.755545   3.409233   0.000000
    15  H    2.571043   3.127400   3.732911   1.091174   0.000000
    16  H    3.731747   3.729386   4.179380   1.090299   1.784851
    17  H    3.130503   2.567237   3.730540   1.091107   1.786401
                   16         17
    16  H    0.000000
    17  H    1.784631   0.000000
 Stoichiometry    C2H9NO4S
 Framework group  C1[X(C2H9NO4S)]
 Deg. of freedom    45
 Full point group                 C1      NOp   1
 Largest Abelian subgroup         C1      NOp   1
 Largest concise Abelian subgroup C1      NOp   1
                         Standard orientation:                         
 ---------------------------------------------------------------------
 Center     Atomic      Atomic             Coordinates (Angstroms)
 Number     Number       Type             X           Y           Z
 ---------------------------------------------------------------------
      1          1           0        1.225412   -0.079746    0.806300
      2         16           0       -1.290391   -0.146593    0.011183
      3          8           0       -1.877749    1.382602    0.032089
      4          8           0       -0.435841   -0.213097   -1.209908
      5          8           0       -2.448576   -1.022491   -0.009313
      6          8           0       -0.450754   -0.175174    1.233451
      7          1           0       -2.730428    1.366344   -0.421801
      8          7           0        1.900527   -0.014960    0.007405
      9          1           0        1.185951   -0.092904   -0.763465
     10          6           0        2.823320   -1.164256   -0.004481
     11          1           0        3.469223   -1.123884    0.874113
     12          1           0        3.429797   -1.134402   -0.911061
     13          1           0        2.233197   -2.080589    0.013233
     14          6           0        2.538216    1.314837   -0.017002
     15          1           0        3.176484    1.430402    0.860448
     16          1           0        1.752896    2.071062   -0.004794
     17          1           0        3.134174    1.415717   -0.925392
 ---------------------------------------------------------------------
 Rotational constants (GHZ):           3.2435995           0.9214240           0.8430286
 Standard basis: 6-31++G(d,p) (6D, 7F)
 There are   210 symmetry adapted cartesian basis functions of A   symmetry.
 There are   210 symmetry adapted basis functions of A   symmetry.
   210 basis functions,   352 primitive gaussians,   210 cartesian basis functions
    38 alpha electrons       38 beta electrons
       nuclear repulsion energy       548.9458348227 Hartrees.
 NAtoms=   17 NActive=   17 NUniq=   17 SFac= 1.00D+00 NAtFMM=   60 NAOKFM=F Big=F
 Integral buffers will be    131072 words long.
 Raffenetti 2 integral format.
 Two-electron integral symmetry is turned on.
 Nuclear repulsion after empirical dispersion term =      548.9377035158 Hartrees.
 One-electron integrals computed using PRISM.
 NBasis=   210 RedAO= T EigKep=  5.41D-04  NBF=   210
 NBsUse=   210 1.00D-06 EigRej= -1.00D+00 NBFU=   210
 ExpMin= 3.60D-02 ExpMax= 2.19D+04 ExpMxC= 3.30D+03 IAcc=3 IRadAn=         5 AccDes= 0.00D+00
 Harris functional with IExCor= 4639 and IRadAn=       5 diagonalized for initial guess.
 HarFok:  IExCor= 4639 AccDes= 0.00D+00 IRadAn=         5 IDoV= 1 UseB2=F ITyADJ=14
 ICtDFT=  3500011 ScaDFX=  1.000000  1.000000  1.000000  1.000000
 FoFCou: FMM=F IPFlag=           0 FMFlag=      100000 FMFlg1=           0
         NFxFlg=           0 DoJE=T BraDBF=F KetDBF=T FulRan=T
         wScrn=  0.000000 ICntrl=       500 IOpCl=  0 I1Cent=   200000004 NGrid=           0
         NMat0=    1 NMatS0=      1 NMatT0=    0 NMatD0=    1 NMtDS0=    0 NMtDT0=    0
 Petite list used in FoFCou.
 Requested convergence on RMS density matrix=1.00D-08 within 128 cycles.
 Requested convergence on MAX density matrix=1.00D-06.
 Requested convergence on             energy=1.00D-06.
 No special actions if energy rises.
 SCF Done:  E(RwB97XD) =  -835.302994957     A.U. after   13 cycles
            NFock= 13  Conv=0.76D-08     -V/T= 2.0066
 DoSCS=F DFT=T ScalE2(SS,OS)=  1.000000  1.000000
 Range of M.O.s used for correlation:     1   210
 NBasis=   210 NAE=    38 NBE=    38 NFC=     0 NFV=     0
 NROrb=    210 NOA=    38 NOB=    38 NVA=   172 NVB=   172

 **** Warning!!: The largest alpha MO coefficient is  0.16166126D+02

 Symmetrizing basis deriv contribution to polar:
 IMax=3 JMax=2 DiffMx= 0.00D+00
 G2DrvN: will do    18 centers at a time, making    1 passes.
 Calling FoFCou, ICntrl=  3107 FMM=F I1Cent=   0 AccDes= 0.00D+00.
 End of G2Drv F.D. properties file   721 does not exist.
 End of G2Drv F.D. properties file   722 does not exist.
 End of G2Drv F.D. properties file   788 does not exist.
          IDoAtm=11111111111111111
          Differentiating once with respect to electric field.
                with respect to dipole field.
          Differentiating once with respect to nuclear coordinates.
 Keep R1 ints in memory in canonical form, NReq=503866084.
          There are    54 degrees of freedom in the 1st order CPHF.  IDoFFX=6 NUNeed=     3.
     51 vectors produced by pass  0 Test12= 1.21D-14 1.85D-09 XBig12= 2.65D+01 1.12D+00.
 AX will form    51 AO Fock derivatives at one time.
     51 vectors produced by pass  1 Test12= 1.21D-14 1.85D-09 XBig12= 3.91D+00 3.81D-01.
     51 vectors produced by pass  2 Test12= 1.21D-14 1.85D-09 XBig12= 8.98D-02 5.93D-02.
     51 vectors produced by pass  3 Test12= 1.21D-14 1.85D-09 XBig12= 1.54D-03 6.12D-03.
     51 vectors produced by pass  4 Test12= 1.21D-14 1.85D-09 XBig12= 1.41D-05 3.75D-04.
     51 vectors produced by pass  5 Test12= 1.21D-14 1.85D-09 XBig12= 9.33D-08 4.74D-05.
     43 vectors produced by pass  6 Test12= 1.21D-14 1.85D-09 XBig12= 6.68D-10 4.49D-06.
      8 vectors produced by pass  7 Test12= 1.21D-14 1.85D-09 XBig12= 3.60D-12 1.98D-07.
      3 vectors produced by pass  8 Test12= 1.21D-14 1.85D-09 XBig12= 1.77D-14 1.29D-08.
 InvSVY:  IOpt=1 It=  1 EMax= 2.66D-15
 Solved reduced A of dimension   360 with    54 vectors.
 Isotropic polarizability for W=    0.000000       68.34 Bohr**3.
 End of Minotr F.D. properties file   721 does not exist.
 End of Minotr F.D. properties file   722 does not exist.
 End of Minotr F.D. properties file   788 does not exist.

 **********************************************************************

            Population analysis using the SCF Density.

 **********************************************************************

 Orbital symmetries:
       Occupied  (A) (A) (A) (A) (A) (A) (A) (A) (A) (A) (A) (A)
                 (A) (A) (A) (A) (A) (A) (A) (A) (A) (A) (A) (A)
                 (A) (A) (A) (A) (A) (A) (A) (A) (A) (A) (A) (A)
                 (A) (A)
       Virtual   (A) (A) (A) (A) (A) (A) (A) (A) (A) (A) (A) (A)
                 (A) (A) (A) (A) (A) (A) (A) (A) (A) (A) (A) (A)
                 (A) (A) (A) (A) (A) (A) (A) (A) (A) (A) (A) (A)
                 (A) (A) (A) (A) (A) (A) (A) (A) (A) (A) (A) (A)
                 (A) (A) (A) (A) (A) (A) (A) (A) (A) (A) (A) (A)
                 (A) (A) (A) (A) (A) (A) (A) (A) (A) (A) (A) (A)
                 (A) (A) (A) (A) (A) (A) (A) (A) (A) (A) (A) (A)
                 (A) (A) (A) (A) (A) (A) (A) (A) (A) (A) (A) (A)
                 (A) (A) (A) (A) (A) (A) (A) (A) (A) (A) (A) (A)
                 (A) (A) (A) (A) (A) (A) (A) (A) (A) (A) (A) (A)
                 (A) (A) (A) (A) (A) (A) (A) (A) (A) (A) (A) (A)
                 (A) (A) (A) (A) (A) (A) (A) (A) (A) (A) (A) (A)
                 (A) (A) (A) (A) (A) (A) (A) (A) (A) (A) (A) (A)
                 (A) (A) (A) (A) (A) (A) (A) (A) (A) (A) (A) (A)
                 (A) (A) (A) (A)
 The electronic state is 1-A.
 Alpha  occ. eigenvalues --  -89.29622 -19.30443 -19.25546 -19.25419 -19.24607
 Alpha  occ. eigenvalues --  -14.57280 -10.38424 -10.38313  -8.27037  -6.22168
 Alpha  occ. eigenvalues --   -6.21989  -6.21955  -1.24673  -1.12800  -1.11605
 Alpha  occ. eigenvalues --   -1.08662  -1.07982  -0.88020  -0.82209  -0.71761
 Alpha  occ. eigenvalues --   -0.68516  -0.65664  -0.61069  -0.60709  -0.57019
 Alpha  occ. eigenvalues --   -0.55652  -0.54786  -0.53755  -0.52209  -0.51284
 Alpha  occ. eigenvalues --   -0.50030  -0.44632  -0.42506  -0.41824  -0.41536
 Alpha  occ. eigenvalues --   -0.37443  -0.36108  -0.34445
 Alpha virt. eigenvalues --    0.01958   0.04208   0.04699   0.05908   0.07055
 Alpha virt. eigenvalues --    0.07661   0.08283   0.09203   0.10429   0.11011
 Alpha virt. eigenvalues --    0.13381   0.13789   0.14545   0.15416   0.15752
 Alpha virt. eigenvalues --    0.16743   0.16853   0.16942   0.17267   0.18402
 Alpha virt. eigenvalues --    0.18498   0.20217   0.20905   0.21944   0.22470
 Alpha virt. eigenvalues --    0.22770   0.24003   0.24122   0.24519   0.25261
 Alpha virt. eigenvalues --    0.26582   0.27113   0.27354   0.28217   0.29735
 Alpha virt. eigenvalues --    0.30538   0.30721   0.32250   0.32362   0.35274
 Alpha virt. eigenvalues --    0.36097   0.36687   0.37482   0.38092   0.38815
 Alpha virt. eigenvalues --    0.39317   0.40245   0.40389   0.42358   0.43359
 Alpha virt. eigenvalues --    0.43865   0.44759   0.48089   0.49024   0.51093
 Alpha virt. eigenvalues --    0.52172   0.68048   0.71454   0.73315   0.74770
 Alpha virt. eigenvalues --    0.75094   0.75255   0.76343   0.77598   0.78312
 Alpha virt. eigenvalues --    0.81948   0.84621   0.90389   0.90955   0.98447
 Alpha virt. eigenvalues --    0.98902   1.00586   1.05129   1.06341   1.08244
 Alpha virt. eigenvalues --    1.10654   1.13810   1.15292   1.15735   1.16390
 Alpha virt. eigenvalues --    1.21034   1.22726   1.23605   1.26334   1.28680
 Alpha virt. eigenvalues --    1.29416   1.29911   1.34942   1.35721   1.36783
 Alpha virt. eigenvalues --    1.38034   1.38756   1.41028   1.42279   1.45382
 Alpha virt. eigenvalues --    1.46446   1.47323   1.49900   1.53829   1.59743
 Alpha virt. eigenvalues --    1.60541   1.66736   1.69369   1.72366   1.73007
 Alpha virt. eigenvalues --    1.77541   1.79467   1.86805   1.87888   1.90809
 Alpha virt. eigenvalues --    1.91847   1.91936   1.92845   1.95021   1.96533
 Alpha virt. eigenvalues --    1.96968   1.99288   2.00151   2.03486   2.06329
 Alpha virt. eigenvalues --    2.06633   2.08503   2.11996   2.14129   2.16920
 Alpha virt. eigenvalues --    2.17269   2.19642   2.24912   2.25250   2.34462
 Alpha virt. eigenvalues --    2.35107   2.39086   2.39638   2.40172   2.40915
 Alpha virt. eigenvalues --    2.46150   2.49763   2.60106   2.62460   2.66384
 Alpha virt. eigenvalues --    2.69515   2.72264   2.72544   2.73204   2.75105
 Alpha virt. eigenvalues --    2.79536   2.81332   2.91181   2.92050   2.96176
 Alpha virt. eigenvalues --    2.96471   2.98594   2.99454   3.03707   3.12093
 Alpha virt. eigenvalues --    3.30510   3.31351   3.37754   3.46894   3.48471
 Alpha virt. eigenvalues --    3.51734   3.54280   3.56938   3.72614   4.12626
 Alpha virt. eigenvalues --    4.24899   4.27132   4.31594   4.36230   4.49885
 Alpha virt. eigenvalues --    4.58574   4.64003
          Condensed to atoms (all electrons):
               1          2          3          4          5          6
     1  H    0.313971  -0.005001   0.002232  -0.032219  -0.000472   0.092762
     2  S   -0.005001  13.654140   0.007379   0.159204   0.303483   0.189237
     3  O    0.002232   0.007379   8.632417  -0.057669  -0.103429  -0.045192
     4  O   -0.032219   0.159204  -0.057669   8.908638  -0.086793  -0.175167
     5  O   -0.000472   0.303483  -0.103429  -0.086793   8.643557  -0.118515
     6  O    0.092762   0.189237  -0.045192  -0.175167  -0.118515   8.905806
     7  H    0.000462   0.016369   0.223939  -0.007306  -0.008623   0.006012
     8  N    0.261747  -0.008186   0.002620  -0.030232  -0.010285  -0.018783
     9  H   -0.034695  -0.003674  -0.001385   0.100072   0.004529  -0.029608
    10  C   -0.020667   0.018927  -0.004508  -0.013049   0.012052  -0.018681
    11  H   -0.009464   0.000226   0.000359   0.001171  -0.000486  -0.001789
    12  H    0.007064   0.000922   0.000092  -0.001995  -0.000340   0.001180
    13  H   -0.001825  -0.005221  -0.000936   0.002757  -0.002502   0.003536
    14  C   -0.020994  -0.023089   0.004488   0.003486  -0.003767   0.002752
    15  H   -0.009247   0.002468  -0.001136   0.000315   0.000133  -0.002772
    16  H    0.000473  -0.007716   0.005483   0.001964   0.001692   0.001468
    17  H    0.005630   0.001895  -0.000785  -0.002711   0.000078  -0.000253
               7          8          9         10         11         12
     1  H    0.000462   0.261747  -0.034695  -0.020667  -0.009464   0.007064
     2  S    0.016369  -0.008186  -0.003674   0.018927   0.000226   0.000922
     3  O    0.223939   0.002620  -0.001385  -0.004508   0.000359   0.000092
     4  O   -0.007306  -0.030232   0.100072  -0.013049   0.001171  -0.001995
     5  O   -0.008623  -0.010285   0.004529   0.012052  -0.000486  -0.000340
     6  O    0.006012  -0.018783  -0.029608  -0.018681  -0.001789   0.001180
     7  H    0.369550  -0.000639   0.000279   0.000401   0.000047  -0.000063
     8  N   -0.000639   7.283829   0.242849   0.057216  -0.035267  -0.035999
     9  H    0.000279   0.242849   0.310049  -0.013307   0.007003  -0.009983
    10  C    0.000401   0.057216  -0.013307   5.288450   0.393246   0.394850
    11  H    0.000047  -0.035267   0.007003   0.393246   0.533662  -0.047854
    12  H   -0.000063  -0.035999  -0.009983   0.394850  -0.047854   0.532484
    13  H   -0.000282  -0.036386  -0.002988   0.404352  -0.023053  -0.022787
    14  C   -0.000237   0.091702  -0.022575  -0.187636   0.000927   0.000412
    15  H    0.000099  -0.036474   0.005981  -0.000711   0.005452  -0.003040
    16  H   -0.001065  -0.044572  -0.000649   0.004805   0.000694   0.000797
    17  H    0.000172  -0.035254  -0.008474  -0.000576  -0.003170   0.005331
              13         14         15         16         17
     1  H   -0.001825  -0.020994  -0.009247   0.000473   0.005630
     2  S   -0.005221  -0.023089   0.002468  -0.007716   0.001895
     3  O   -0.000936   0.004488  -0.001136   0.005483  -0.000785
     4  O    0.002757   0.003486   0.000315   0.001964  -0.002711
     5  O   -0.002502  -0.003767   0.000133   0.001692   0.000078
     6  O    0.003536   0.002752  -0.002772   0.001468  -0.000253
     7  H   -0.000282  -0.000237   0.000099  -0.001065   0.000172
     8  N   -0.036386   0.091702  -0.036474  -0.044572  -0.035254
     9  H   -0.002988  -0.022575   0.005981  -0.000649  -0.008474
    10  C    0.404352  -0.187636  -0.000711   0.004805  -0.000576
    11  H   -0.023053   0.000927   0.005452   0.000694  -0.003170
    12  H   -0.022787   0.000412  -0.003040   0.000797   0.005331
    13  H    0.474734   0.008743   0.000542  -0.001699   0.000643
    14  C    0.008743   5.237750   0.397546   0.415905   0.396432
    15  H    0.000542   0.397546   0.536956  -0.024728  -0.049890
    16  H   -0.001699   0.415905  -0.024728   0.473471  -0.024334
    17  H    0.000643   0.396432  -0.049890  -0.024334   0.536084
 Mulliken charges:
               1
     1  H    0.450242
     2  S    1.698637
     3  O   -0.663969
     4  O   -0.770465
     5  O   -0.630311
     6  O   -0.791994
     7  H    0.400885
     8  N   -0.647888
     9  H    0.456575
    10  C   -0.315164
    11  H    0.178296
    12  H    0.178928
    13  H    0.202372
    14  C   -0.301847
    15  H    0.178505
    16  H    0.198012
    17  H    0.179182
 Sum of Mulliken charges =  -0.00000
 Mulliken charges with hydrogens summed into heavy atoms:
               1
     2  S    1.698637
     3  O   -0.263083
     4  O   -0.770465
     5  O   -0.630311
     6  O   -0.791994
     8  N    0.258930
    10  C    0.244433
    14  C    0.253852
 APT charges:
               1
     1  H    0.436047
     2  S    2.558649
     3  O   -0.854557
     4  O   -1.076524
     5  O   -0.901678
     6  O   -1.037461
     7  H    0.306766
     8  N   -0.547530
     9  H    0.464457
    10  C    0.251899
    11  H    0.014591
    12  H    0.016061
    13  H    0.044560
    14  C    0.242054
    15  H    0.016516
    16  H    0.048519
    17  H    0.017631
 Sum of APT charges =  -0.00000
 APT charges with hydrogens summed into heavy atoms:
               1
     2  S    2.558649
     3  O   -0.547791
     4  O   -1.076524
     5  O   -0.901678
     6  O   -1.037461
     8  N    0.352974
    10  C    0.327111
    14  C    0.324720
 Electronic spatial extent (au):  <R**2>=           1432.6416
 Charge=             -0.0000 electrons
 Dipole moment (field-independent basis, Debye):
    X=              8.7435    Y=              1.9084    Z=             -0.7231  Tot=              8.9785
 Quadrupole moment (field-independent basis, Debye-Ang):
   XX=            -40.7894   YY=            -54.7852   ZZ=            -61.0407
   XY=             -6.6894   XZ=              2.5197   YZ=             -1.4877
 Traceless Quadrupole moment (field-independent basis, Debye-Ang):
   XX=             11.4157   YY=             -2.5801   ZZ=             -8.8356
   XY=             -6.6894   XZ=              2.5197   YZ=             -1.4877
 Octapole moment (field-independent basis, Debye-Ang**2):
  XXX=             31.5599  YYY=              0.9180  ZZZ=             -0.3221  XYY=             12.1476
  XXY=             21.3996  XXZ=             -7.2834  XZZ=              4.9577  YZZ=              2.4175
  YYZ=             -1.7116  XYZ=              4.0148
 Hexadecapole moment (field-independent basis, Debye-Ang**3):
 XXXX=          -1166.5458 YYYY=           -312.9618 ZZZZ=           -190.6386 XXXY=            -78.9129
 XXXZ=             22.0734 YYYX=            -10.0221 YYYZ=             -3.3068 ZZZX=              1.4362
 ZZZY=             -1.1010 XXYY=           -247.7297 XXZZ=           -227.8778 YYZZ=            -84.4112
 XXYZ=            -11.2917 YYXZ=              5.5128 ZZXY=             -2.7628
 N-N= 5.489377035158D+02 E-N=-3.067638928369D+03  KE= 8.298542443937D+02
  Exact polarizability:      80.987       0.596      64.651       0.669      -0.118      59.378
 Approx polarizability:      77.646       2.371      67.621       0.986       0.226      69.084
 Calling FoFJK, ICntrl=    100127 FMM=F ISym2X=0 I1Cent= 0 IOpClX= 0 NMat=1 NMatS=1 NMatT=0.
 Full mass-weighted force constant matrix:
 Low frequencies ---  -11.0983   -6.8805   -0.0036   -0.0027   -0.0015    2.7248
 Low frequencies ---   13.7437   56.0610   63.5930
 Diagonal vibrational polarizability:
      173.5565095     150.9822481     112.4590238
 Harmonic frequencies (cm**-1), IR intensities (KM/Mole), Raman scattering
 activities (A**4/AMU), depolarization ratios for plane and unpolarized
 incident light, reduced masses (AMU), force constants (mDyne/A),
 and normal coordinates:
                      1                      2                      3
                      A                      A                      A
 Frequencies --     13.6718                56.0192                63.5566
 Red. masses --      4.1125                 2.8688                 2.9753
 Frc consts  --      0.0005                 0.0053                 0.0071
 IR Inten    --      0.9220                 1.7188                 4.4111
  Atom  AN      X      Y      Z        X      Y      Z        X      Y      Z
     1   1     0.02  -0.17   0.02    -0.19   0.11  -0.19    -0.16  -0.19  -0.19
     2  16    -0.00  -0.02   0.00     0.00  -0.01  -0.03     0.01   0.03  -0.02
     3   8     0.21   0.07  -0.01     0.05   0.00   0.13    -0.06   0.00  -0.05
     4   8    -0.00  -0.14   0.01    -0.09   0.04  -0.09    -0.08  -0.00  -0.07
     5   8    -0.13   0.15  -0.00    -0.02   0.02   0.02     0.04  -0.02   0.15
     6   8    -0.02  -0.12   0.01     0.09  -0.12  -0.08     0.10   0.13  -0.07
     7   1     0.23   0.20  -0.05     0.01   0.06   0.21    -0.15  -0.09   0.11
     8   7    -0.01  -0.07   0.01    -0.02   0.04  -0.08     0.00  -0.09  -0.08
     9   1    -0.02  -0.16   0.02     0.14  -0.02  -0.19     0.16  -0.05  -0.19
    10   6     0.19   0.09  -0.02    -0.04   0.02   0.23     0.09  -0.02  -0.03
    11   1     0.20   0.20  -0.04    -0.23   0.10   0.37    -0.11  -0.08   0.12
    12   1     0.16   0.21  -0.03     0.16  -0.10   0.36     0.29   0.13   0.12
    13   1     0.35  -0.01  -0.02    -0.06   0.03   0.22     0.16  -0.07  -0.27
    14   6    -0.24   0.04   0.01     0.01   0.02  -0.08    -0.09  -0.04   0.20
    15   1    -0.24   0.15  -0.01    -0.20   0.11   0.06    -0.28  -0.10   0.35
    16   1    -0.38  -0.10   0.03     0.03   0.04  -0.36    -0.15  -0.11   0.13
    17   1    -0.28   0.15  -0.01     0.24  -0.09   0.05     0.10   0.11   0.34
                      4                      5                      6
                      A                      A                      A
 Frequencies --     66.5324               146.5448               198.8796
 Red. masses --      3.8758                 1.2359                 1.0366
 Frc consts  --      0.0101                 0.0156                 0.0242
 IR Inten    --      6.7609                78.9899                 0.0776
  Atom  AN      X      Y      Z        X      Y      Z        X      Y      Z
     1   1     0.09  -0.14   0.07     0.04   0.01   0.02    -0.00   0.01   0.00
     2  16     0.00   0.05   0.00    -0.01   0.00  -0.01     0.00   0.00  -0.00
     3   8    -0.14  -0.00   0.07    -0.02  -0.00  -0.07     0.00  -0.00   0.00
     4   8     0.04   0.20   0.02     0.02  -0.01   0.02    -0.00   0.00  -0.00
     5   8     0.08  -0.04  -0.09    -0.05   0.05   0.01     0.00   0.00   0.00
     6   8    -0.03   0.04   0.02    -0.00  -0.04  -0.01     0.00  -0.00  -0.00
     7   1    -0.16  -0.08   0.12    -0.49  -0.25   0.82    -0.00   0.00   0.02
     8   7     0.03  -0.17   0.03     0.03   0.01   0.01    -0.00  -0.00   0.00
     9   1    -0.02  -0.28   0.08     0.02   0.01   0.02     0.00  -0.01   0.00
    10   6     0.18  -0.05   0.09     0.03   0.01  -0.00    -0.00  -0.00   0.04
    11   1     0.26   0.15   0.03     0.05   0.02  -0.02    -0.27  -0.19   0.24
    12   1     0.10  -0.07   0.04     0.00   0.00  -0.02     0.28   0.19   0.23
    13   1     0.32  -0.13   0.26     0.03   0.01   0.03    -0.01  -0.00  -0.34
    14   6    -0.15  -0.09  -0.16     0.04   0.00  -0.00    -0.00  -0.00  -0.03
    15   1    -0.11   0.10  -0.22     0.06  -0.00  -0.02     0.34  -0.14  -0.26
    16   1    -0.26  -0.20  -0.21     0.05   0.01   0.01     0.01   0.00   0.38
    17   1    -0.22  -0.12  -0.21     0.02  -0.00  -0.02    -0.35   0.14  -0.25
                      7                      8                      9
                      A                      A                      A
 Frequencies --    206.2405               217.8728               326.3976
 Red. masses --      2.9446                 1.6244                 2.2555
 Frc consts  --      0.0738                 0.0454                 0.1416
 IR Inten    --     71.8783                14.4539                 2.8153
  Atom  AN      X      Y      Z        X      Y      Z        X      Y      Z
     1   1     0.13   0.00  -0.06     0.03   0.00   0.05     0.13   0.02   0.34
     2  16    -0.09  -0.01   0.02    -0.03  -0.00  -0.03    -0.00  -0.00  -0.04
     3   8    -0.09  -0.00   0.02    -0.02  -0.00   0.03     0.00   0.00   0.01
     4   8    -0.05  -0.03   0.05    -0.09  -0.01  -0.07    -0.05   0.01  -0.08
     5   8    -0.11   0.02  -0.03    -0.04   0.00   0.06    -0.00  -0.01   0.07
     6   8    -0.10  -0.01   0.02     0.04  -0.00  -0.07     0.05  -0.01  -0.08
     7   1     0.10   0.07  -0.33     0.06   0.06  -0.12     0.01   0.04  -0.01
     8   7     0.13   0.00  -0.05     0.04   0.00   0.05     0.01   0.00   0.25
     9   1     0.14   0.00  -0.06     0.05   0.00   0.05    -0.11  -0.01   0.34
    10   6     0.20   0.04  -0.01     0.06   0.02   0.04     0.00   0.00  -0.05
    11   1    -0.00  -0.03   0.14     0.34   0.25  -0.17    -0.02  -0.29  -0.02
    12   1     0.40   0.23   0.13    -0.22  -0.18  -0.16     0.02   0.30  -0.02
    13   1     0.26   0.00  -0.28     0.10   0.00   0.44    -0.00  -0.00  -0.38
    14   6     0.20  -0.02  -0.02     0.06  -0.01   0.04     0.00  -0.00  -0.05
    15   1     0.03   0.00   0.10     0.34  -0.16  -0.14    -0.08   0.28  -0.02
    16   1     0.24   0.03  -0.23     0.09   0.01   0.40    -0.00  -0.00  -0.37
    17   1     0.39  -0.12   0.10    -0.22   0.11  -0.13     0.09  -0.29  -0.02
                     10                     11                     12
                      A                      A                      A
 Frequencies --    372.6181               402.7602               439.3416
 Red. masses --     10.5725                 2.9965                 3.8488
 Frc consts  --      0.8649                 0.2864                 0.4377
 IR Inten    --      1.8252                16.7865                12.6340
  Atom  AN      X      Y      Z        X      Y      Z        X      Y      Z
     1   1    -0.03  -0.02  -0.03     0.15   0.01  -0.02    -0.18  -0.02   0.01
     2  16    -0.02  -0.01   0.05     0.01   0.01   0.01     0.07   0.02   0.01
     3   8     0.09   0.06  -0.42    -0.14  -0.06  -0.03    -0.17  -0.10  -0.01
     4   8    -0.05   0.43   0.00     0.06   0.01   0.04     0.10  -0.03   0.03
     5   8     0.04  -0.09   0.30    -0.08   0.12   0.03    -0.05   0.19   0.00
     6   8    -0.08  -0.37   0.08     0.09  -0.08  -0.04     0.14  -0.08  -0.03
     7   1     0.15  -0.03  -0.53     0.06  -0.17  -0.40     0.05  -0.30  -0.42
     8   7    -0.03  -0.01  -0.04     0.16   0.02  -0.00    -0.18  -0.02   0.01
     9   1    -0.02   0.03  -0.05     0.15   0.01   0.02    -0.17  -0.02  -0.01
    10   6     0.02   0.04   0.01    -0.03  -0.16   0.00    -0.02   0.16  -0.00
    11   1     0.01   0.12   0.02    -0.03  -0.34   0.01    -0.02   0.30  -0.01
    12   1     0.04   0.05   0.02    -0.03  -0.34  -0.00    -0.02   0.32   0.00
    13   1     0.09  -0.00   0.04    -0.28  -0.00   0.01     0.21   0.01  -0.01
    14   6     0.03  -0.04   0.00    -0.06   0.15   0.00     0.02  -0.15  -0.00
    15   1     0.05  -0.12  -0.01    -0.10   0.32   0.01     0.06  -0.29  -0.01
    16   1     0.08   0.02   0.04    -0.27  -0.06   0.01     0.21   0.05  -0.01
    17   1     0.02  -0.05  -0.00    -0.11   0.32  -0.01     0.05  -0.31   0.00
                     13                     14                     15
                      A                      A                      A
 Frequencies --    550.8367               563.6722               578.1381
 Red. masses --     14.9385                12.7737                12.5567
 Frc consts  --      2.6706                 2.3912                 2.4728
 IR Inten    --     23.1700                47.9332               120.4292
  Atom  AN      X      Y      Z        X      Y      Z        X      Y      Z
     1   1    -0.01  -0.03  -0.02    -0.14  -0.00  -0.13    -0.08  -0.00  -0.03
     2  16    -0.02   0.26  -0.05    -0.06  -0.05  -0.25    -0.23  -0.03   0.08
     3   8    -0.28   0.44   0.06     0.02  -0.05   0.22     0.08   0.18  -0.10
     4   8     0.06  -0.41   0.03     0.52   0.08   0.09     0.15   0.06   0.42
     5   8     0.35  -0.16   0.08    -0.11  -0.01   0.43    -0.11  -0.24  -0.14
     6   8    -0.09  -0.41  -0.05    -0.28   0.07  -0.17     0.41   0.03  -0.37
     7   1    -0.19   0.30  -0.12     0.06   0.45   0.15     0.01   0.49   0.03
     8   7     0.00   0.01  -0.01    -0.02  -0.00  -0.06    -0.03  -0.00   0.01
     9   1     0.02  -0.03  -0.02     0.03   0.01  -0.09    -0.13  -0.00   0.08
    10   6     0.00  -0.00  -0.00    -0.02   0.03  -0.01    -0.03   0.05   0.00
    11   1    -0.00  -0.00  -0.00    -0.02   0.06  -0.02    -0.02   0.06   0.00
    12   1     0.00  -0.01  -0.00    -0.01   0.02  -0.01    -0.02   0.06   0.01
    13   1    -0.02   0.01   0.00     0.01   0.01   0.01     0.01   0.02   0.00
    14   6     0.00   0.01  -0.00    -0.01  -0.03  -0.01    -0.02  -0.05   0.00
    15   1     0.00   0.00  -0.00    -0.01  -0.07  -0.01    -0.01  -0.06   0.00
    16   1     0.01   0.02   0.00     0.01  -0.01   0.01     0.01  -0.02  -0.00
    17   1     0.00   0.02  -0.00    -0.00  -0.01  -0.01    -0.01  -0.06   0.01
                     16                     17                     18
                      A                      A                      A
 Frequencies --    793.7170               825.4189               946.9520
 Red. masses --     16.3454                 1.1240                 2.8461
 Frc consts  --      6.0670                 0.4512                 1.5037
 IR Inten    --    227.9444                38.6743                 0.2891
  Atom  AN      X      Y      Z        X      Y      Z        X      Y      Z
     1   1     0.01   0.02   0.01     0.57   0.05   0.32    -0.18  -0.02   0.04
     2  16     0.17  -0.40   0.00     0.00  -0.00   0.02     0.01  -0.01   0.00
     3   8    -0.28   0.65   0.01    -0.00   0.00   0.00    -0.00   0.01   0.00
     4   8     0.09   0.08  -0.17     0.01  -0.00  -0.04     0.01   0.00   0.01
     5   8    -0.20  -0.02  -0.01    -0.00   0.00   0.01     0.00   0.01   0.00
     6   8     0.09   0.09   0.17    -0.01   0.00  -0.04     0.01   0.00  -0.02
     7   1    -0.24   0.30  -0.07    -0.01   0.01   0.01    -0.00  -0.00  -0.00
     8   7    -0.01  -0.00   0.00    -0.00  -0.00  -0.06    -0.21  -0.03   0.00
     9   1     0.11   0.03  -0.06    -0.53  -0.05   0.32    -0.23  -0.02   0.00
    10   6    -0.02   0.02  -0.00    -0.00   0.00   0.00     0.09  -0.21  -0.00
    11   1    -0.01   0.03  -0.01    -0.14   0.13   0.10     0.10   0.03  -0.02
    12   1    -0.03   0.05  -0.01     0.13  -0.12   0.09     0.12   0.02   0.02
    13   1     0.01  -0.01  -0.01    -0.01   0.01   0.08     0.42  -0.43  -0.00
    14   6    -0.01  -0.03  -0.00    -0.00  -0.00   0.00     0.05   0.23  -0.00
    15   1    -0.01  -0.03  -0.01    -0.10  -0.15   0.10     0.11  -0.00  -0.02
    16   1    -0.01  -0.03  -0.01    -0.00  -0.01   0.07     0.30   0.50  -0.01
    17   1    -0.02  -0.05  -0.01     0.10   0.14   0.09     0.12   0.01   0.02
                     19                     20                     21
                      A                      A                      A
 Frequencies --   1038.5945              1070.9410              1072.6100
 Red. masses --     15.5143                 1.3021                 1.2186
 Frc consts  --      9.8599                 0.8799                 0.8261
 IR Inten    --    245.9240                11.9998                 4.8354
  Atom  AN      X      Y      Z        X      Y      Z        X      Y      Z
     1   1     0.12   0.04   0.05    -0.02   0.22   0.00     0.02  -0.21  -0.01
     2  16     0.19  -0.20  -0.04    -0.00   0.00  -0.00    -0.00   0.00   0.00
     3   8    -0.02   0.07   0.01    -0.00  -0.00  -0.00     0.00  -0.00   0.00
     4   8    -0.35   0.05   0.48     0.00  -0.00  -0.00     0.00  -0.00  -0.00
     5   8     0.30   0.27   0.01    -0.00  -0.00  -0.00    -0.00  -0.00   0.00
     6   8    -0.31   0.04  -0.43     0.00  -0.00   0.01    -0.00   0.00  -0.00
     7   1     0.03  -0.25  -0.05    -0.00   0.01   0.00     0.00  -0.01  -0.00
     8   7     0.02  -0.00  -0.00     0.01  -0.07   0.00     0.01  -0.05  -0.00
     9   1     0.08   0.04   0.01     0.01  -0.13   0.01    -0.02   0.26  -0.01
    10   6    -0.02   0.01  -0.01    -0.09   0.00   0.05    -0.07   0.00  -0.06
    11   1    -0.04   0.07   0.01     0.12   0.10  -0.12    -0.27   0.44   0.07
    12   1     0.00   0.03   0.01    -0.22   0.46  -0.03     0.21  -0.05   0.12
    13   1     0.00   0.00   0.01     0.27  -0.23  -0.13     0.19  -0.16   0.17
    14   6     0.00  -0.02  -0.01     0.09   0.02  -0.05     0.06   0.01   0.07
    15   1    -0.04  -0.03   0.02    -0.15   0.07   0.12     0.17   0.50  -0.08
    16   1    -0.06  -0.09   0.02    -0.21  -0.29   0.14    -0.15  -0.20  -0.17
    17   1    -0.00   0.02   0.00     0.11   0.51   0.02    -0.20  -0.11  -0.13
                     22                     23                     24
                      A                      A                      A
 Frequencies --   1137.6212              1161.3730              1170.8247
 Red. masses --      1.7608                 2.8001                 2.2826
 Frc consts  --      1.3426                 2.2252                 1.8436
 IR Inten    --    123.0392                 9.1263               177.7130
  Atom  AN      X      Y      Z        X      Y      Z        X      Y      Z
     1   1     0.02   0.02   0.07    -0.06   0.46  -0.02    -0.01  -0.05  -0.11
     2  16    -0.00  -0.02  -0.08    -0.00  -0.00   0.02    -0.02  -0.03   0.12
     3   8    -0.04  -0.06  -0.03    -0.00  -0.00  -0.00    -0.03  -0.05  -0.04
     4   8    -0.05   0.00   0.07     0.01  -0.00  -0.02     0.06  -0.01  -0.11
     5   8     0.04   0.05   0.00     0.01   0.01  -0.00     0.07   0.07  -0.01
     6   8     0.07  -0.01   0.11    -0.01  -0.00  -0.02    -0.05  -0.00  -0.10
     7   1    -0.12   0.92   0.12    -0.01   0.03   0.01    -0.12   0.76   0.14
     8   7    -0.00   0.01   0.02    -0.03   0.27  -0.01     0.00  -0.03  -0.05
     9   1    -0.04   0.01   0.08    -0.06   0.46  -0.01    -0.02  -0.04  -0.10
    10   6     0.00  -0.01  -0.03     0.08  -0.17   0.01    -0.00   0.02   0.06
    11   1    -0.10   0.09   0.04     0.14   0.09  -0.05     0.19  -0.19  -0.07
    12   1     0.11  -0.09   0.04     0.10   0.12   0.02    -0.20   0.14  -0.07
    13   1     0.01  -0.01   0.07     0.27  -0.29  -0.02    -0.04   0.04  -0.14
    14   6    -0.00  -0.01  -0.02    -0.04  -0.19   0.01     0.01   0.02   0.05
    15   1    -0.06  -0.08   0.03    -0.12   0.11   0.03     0.15   0.18  -0.07
    16   1    -0.01  -0.01   0.06    -0.19  -0.34  -0.01     0.01   0.02  -0.13
    17   1     0.06   0.08   0.03    -0.16   0.06  -0.04    -0.12  -0.18  -0.06
                     25                     26                     27
                      A                      A                      A
 Frequencies --   1262.7915              1268.6079              1334.3524
 Red. masses --      1.8302                 1.6612                 7.0008
 Frc consts  --      1.7196                 1.5752                 7.3441
 IR Inten    --     72.0054                43.3933               530.2053
  Atom  AN      X      Y      Z        X      Y      Z        X      Y      Z
     1   1    -0.34  -0.03  -0.07     0.08   0.00  -0.04     0.03  -0.01   0.05
     2  16    -0.02  -0.01   0.07     0.01   0.01   0.02     0.27   0.13   0.05
     3   8    -0.00  -0.00  -0.01    -0.00  -0.01  -0.00    -0.04  -0.06  -0.03
     4   8     0.04  -0.00  -0.06     0.01  -0.00  -0.02    -0.06  -0.01   0.05
     5   8     0.03   0.03  -0.01    -0.01  -0.01  -0.00    -0.33  -0.24  -0.01
     6   8    -0.03   0.00  -0.05    -0.02  -0.00  -0.02    -0.10  -0.01  -0.13
     7   1    -0.01   0.04   0.02    -0.01   0.08   0.01    -0.09   0.75   0.08
     8   7    -0.03  -0.01   0.13     0.14   0.02   0.03    -0.06   0.00   0.03
     9   1     0.21   0.02  -0.06     0.24   0.02  -0.01     0.17   0.00  -0.14
    10   6     0.03   0.02  -0.11    -0.11  -0.05  -0.02     0.03   0.00  -0.02
    11   1    -0.29   0.13   0.13    -0.07   0.41  -0.07    -0.07  -0.02   0.05
    12   1     0.30  -0.34   0.06     0.08   0.30   0.11     0.02  -0.08  -0.02
    13   1    -0.07   0.08   0.24     0.26  -0.28   0.05    -0.07   0.07   0.04
    14   6     0.03  -0.01  -0.11    -0.12   0.02  -0.02     0.03  -0.01  -0.02
    15   1    -0.25  -0.19   0.13     0.03  -0.42  -0.07    -0.08   0.03   0.06
    16   1    -0.04  -0.09   0.23     0.18   0.33   0.05    -0.05  -0.09   0.04
    17   1     0.21   0.39   0.06     0.15  -0.28   0.12    -0.01   0.10  -0.03
                     28                     29                     30
                      A                      A                      A
 Frequencies --   1460.7003              1475.0759              1487.4133
 Red. masses --      1.1589                 1.1114                 1.2071
 Frc consts  --      1.4568                 1.4247                 1.5735
 IR Inten    --      3.8245                 0.1289                 1.5403
  Atom  AN      X      Y      Z        X      Y      Z        X      Y      Z
     1   1     0.01  -0.04   0.00    -0.06   0.52   0.00    -0.05  -0.01  -0.03
     2  16     0.00   0.00   0.00     0.00   0.00   0.00     0.01   0.00   0.00
     3   8     0.00  -0.00   0.00     0.00   0.00   0.00    -0.00   0.00  -0.00
     4   8     0.00  -0.00  -0.00     0.00   0.00  -0.00    -0.00   0.00   0.00
     5   8    -0.00  -0.00  -0.00    -0.00  -0.00  -0.00    -0.00  -0.00  -0.00
     6   8     0.00  -0.00   0.00    -0.00  -0.00  -0.00    -0.00  -0.00  -0.00
     7   1     0.00  -0.00  -0.00     0.00  -0.00   0.00    -0.00   0.01  -0.00
     8   7    -0.00   0.03  -0.00     0.00  -0.00  -0.00     0.02   0.00  -0.00
     9   1     0.00  -0.03  -0.00     0.05  -0.49   0.01    -0.05   0.01   0.03
    10   6    -0.05   0.06   0.00    -0.00   0.00  -0.07    -0.06   0.07   0.00
    11   1     0.14  -0.34  -0.11    -0.14  -0.16   0.05     0.15  -0.33  -0.13
    12   1     0.15  -0.34   0.11     0.13   0.14   0.03     0.16  -0.34   0.13
    13   1     0.37  -0.22  -0.01     0.02  -0.00   0.37     0.38  -0.21  -0.01
    14   6     0.04   0.07  -0.00    -0.00   0.00   0.07    -0.04  -0.08   0.00
    15   1    -0.07  -0.36   0.12     0.18  -0.13  -0.05     0.07   0.35  -0.14
    16   1    -0.33  -0.31   0.01    -0.01  -0.00  -0.40     0.31   0.29   0.00
    17   1    -0.07  -0.37  -0.11    -0.17   0.12  -0.03     0.08   0.34   0.13
                     31                     32                     33
                      A                      A                      A
 Frequencies --   1501.4682              1520.9110              1521.6962
 Red. masses --      1.0512                 1.0358                 1.0371
 Frc consts  --      1.3962                 1.4116                 1.4150
 IR Inten    --      5.4982                 4.3766                25.8763
  Atom  AN      X      Y      Z        X      Y      Z        X      Y      Z
     1   1    -0.01   0.13  -0.00    -0.03   0.01   0.01     0.04  -0.03  -0.01
     2  16     0.00   0.00   0.00     0.00   0.00   0.00    -0.00  -0.00  -0.00
     3   8     0.00  -0.00  -0.00    -0.00   0.00  -0.00     0.00   0.00   0.00
     4   8    -0.00  -0.00   0.00    -0.00   0.00   0.00    -0.00  -0.00   0.00
     5   8    -0.00  -0.00  -0.00    -0.00  -0.00  -0.00     0.00   0.00   0.00
     6   8    -0.00  -0.00  -0.00    -0.00  -0.00  -0.00     0.00   0.00   0.00
     7   1    -0.00  -0.00   0.00    -0.00   0.00  -0.00     0.00  -0.00   0.00
     8   7     0.00  -0.01  -0.00    -0.03  -0.00  -0.00     0.00   0.00  -0.02
     9   1    -0.02   0.13  -0.00    -0.04  -0.01  -0.01    -0.03   0.03  -0.01
    10   6     0.04   0.02   0.00    -0.02  -0.02  -0.00     0.00   0.00  -0.03
    11   1    -0.34  -0.09   0.27     0.36   0.05  -0.27    -0.09  -0.39   0.06
    12   1    -0.35  -0.12  -0.26     0.38   0.10   0.26     0.02   0.38   0.01
    13   1     0.21  -0.10  -0.02    -0.26   0.15   0.04     0.03  -0.01   0.53
    14   6    -0.04   0.01  -0.00    -0.02   0.01  -0.00     0.00  -0.00  -0.03
    15   1     0.36  -0.01  -0.28     0.34   0.04  -0.26    -0.16   0.29   0.05
    16   1    -0.20  -0.16   0.03    -0.21  -0.20   0.06     0.03   0.02   0.44
    17   1     0.39  -0.04   0.27     0.38  -0.02   0.25     0.09  -0.29   0.01
                     34                     35                     36
                      A                      A                      A
 Frequencies --   1525.6247              1603.6537              1678.1906
 Red. masses --      1.0093                 1.2276                 1.0962
 Frc consts  --      1.3841                 1.8600                 1.8189
 IR Inten    --      0.8637                35.0990               568.3701
  Atom  AN      X      Y      Z        X      Y      Z        X      Y      Z
     1   1    -0.04   0.45  -0.00    -0.08   0.64  -0.01     0.54   0.08   0.40
     2  16    -0.00  -0.00   0.00     0.00   0.00   0.00    -0.02  -0.00  -0.00
     3   8     0.00   0.00   0.00     0.00  -0.00  -0.00     0.00  -0.00   0.00
     4   8     0.00   0.00  -0.00    -0.00  -0.00   0.00     0.01  -0.00   0.00
     5   8     0.00  -0.00  -0.00    -0.00  -0.00  -0.00     0.01   0.01   0.00
     6   8    -0.00  -0.00  -0.00    -0.00  -0.00  -0.00     0.01  -0.00   0.00
     7   1    -0.00  -0.00   0.00    -0.00  -0.00   0.00     0.00  -0.01   0.00
     8   7     0.00  -0.00  -0.00     0.02  -0.12   0.00    -0.07  -0.01   0.00
     9   1     0.04  -0.42   0.01    -0.09   0.69   0.01     0.57   0.07  -0.44
    10   6     0.00   0.00  -0.01     0.01   0.03   0.00    -0.01   0.01  -0.00
    11   1    -0.02   0.27  -0.02     0.09  -0.06  -0.05     0.01  -0.04  -0.01
    12   1     0.02  -0.27  -0.02     0.09  -0.05   0.05     0.01  -0.04   0.01
    13   1    -0.01  -0.00  -0.29    -0.07   0.08   0.01     0.03  -0.01  -0.00
    14   6     0.00   0.00   0.00    -0.02   0.02  -0.00    -0.01  -0.01  -0.00
    15   1    -0.09   0.33   0.04    -0.08  -0.09   0.06    -0.00   0.04  -0.01
    16   1     0.02   0.01   0.39     0.04   0.10  -0.01     0.02   0.02   0.00
    17   1     0.04  -0.34   0.01    -0.08  -0.08  -0.05     0.00   0.04   0.01
                     37                     38                     39
                      A                      A                      A
 Frequencies --   2989.4841              3084.2866              3090.1773
 Red. masses --      1.1007                 1.0396                 1.0321
 Frc consts  --      5.7955                 5.8270                 5.8071
 IR Inten    --    443.1193               260.4047                 9.3074
  Atom  AN      X      Y      Z        X      Y      Z        X      Y      Z
     1   1    -0.22  -0.03   0.30     0.21   0.02  -0.33     0.00   0.00  -0.00
     2  16    -0.00   0.00   0.01    -0.00   0.00  -0.00     0.00   0.00  -0.00
     3   8     0.00  -0.00  -0.00     0.00  -0.00   0.00     0.00   0.00   0.00
     4   8     0.00  -0.00  -0.01    -0.00  -0.00   0.00    -0.00  -0.00   0.00
     5   8     0.00   0.00  -0.00     0.00   0.00   0.00    -0.00   0.00   0.00
     6   8    -0.00  -0.00  -0.00     0.00  -0.00   0.00     0.00  -0.00   0.00
     7   1     0.00   0.00   0.00     0.00  -0.00   0.00     0.00   0.00  -0.00
     8   7    -0.03  -0.00  -0.08    -0.02  -0.00   0.02    -0.00  -0.00   0.00
     9   1     0.53   0.07   0.75     0.04   0.00   0.08     0.00   0.00   0.00
    10   6     0.00  -0.00   0.01     0.02  -0.02  -0.00    -0.02   0.02  -0.00
    11   1    -0.03  -0.02  -0.06    -0.23  -0.02  -0.32     0.25   0.02   0.35
    12   1    -0.01   0.01   0.01    -0.22  -0.02   0.34     0.23   0.01  -0.35
    13   1     0.01   0.02   0.00     0.18   0.27  -0.01    -0.20  -0.30   0.01
    14   6     0.00   0.00   0.01     0.02   0.02  -0.00     0.02   0.03  -0.00
    15   1    -0.03   0.01  -0.06    -0.22  -0.04  -0.31    -0.25  -0.04  -0.35
    16   1     0.02  -0.02   0.00     0.23  -0.22  -0.00     0.27  -0.25  -0.00
    17   1    -0.01  -0.01   0.01    -0.22  -0.03   0.34    -0.23  -0.04   0.36
                     40                     41                     42
                      A                      A                      A
 Frequencies --   3130.8842              3187.0547              3188.4105
 Red. masses --      1.0595                 1.1069                 1.1074
 Frc consts  --      6.1193                 6.6240                 6.6328
 IR Inten    --    833.1211                 6.3346                 4.0057
  Atom  AN      X      Y      Z        X      Y      Z        X      Y      Z
     1   1    -0.44  -0.05   0.69    -0.04   0.00   0.05    -0.03  -0.01   0.04
     2  16     0.00  -0.00   0.00     0.00  -0.00   0.00     0.00  -0.00   0.00
     3   8    -0.00   0.00  -0.00    -0.00   0.00  -0.00    -0.00   0.00  -0.00
     4   8     0.00   0.00   0.00     0.00   0.00  -0.00     0.00  -0.00  -0.00
     5   8    -0.00  -0.00  -0.00    -0.00  -0.00  -0.00    -0.00  -0.00  -0.00
     6   8    -0.00   0.00  -0.00    -0.00  -0.00  -0.00    -0.00   0.00  -0.00
     7   1    -0.00   0.00  -0.00    -0.00   0.00  -0.00    -0.00   0.00  -0.00
     8   7     0.05   0.01  -0.03     0.00   0.00  -0.00     0.00   0.00  -0.00
     9   1    -0.21  -0.02  -0.32     0.01  -0.00   0.01     0.01   0.01   0.01
    10   6     0.01  -0.01   0.01    -0.00  -0.00  -0.09    -0.00  -0.00   0.01
    11   1    -0.12  -0.00  -0.15     0.42   0.03   0.56    -0.05  -0.01  -0.06
    12   1    -0.08   0.01   0.10    -0.39  -0.03   0.57     0.04   0.01  -0.07
    13   1     0.10   0.16  -0.00     0.02   0.03  -0.02     0.00   0.01   0.00
    14   6     0.00   0.02   0.00    -0.00   0.00  -0.01    -0.00  -0.00  -0.09
    15   1    -0.11  -0.03  -0.15     0.05   0.01   0.06     0.41   0.07   0.56
    16   1     0.14  -0.13  -0.00     0.01  -0.01  -0.00    -0.01   0.01  -0.02
    17   1    -0.07  -0.02   0.10    -0.04  -0.01   0.06    -0.39  -0.06   0.58
                     43                     44                     45
                      A                      A                      A
 Frequencies --   3200.6522              3201.1706              3878.7125
 Red. masses --      1.1067                 1.1067                 1.0659
 Frc consts  --      6.6798                 6.6819                 9.4483
 IR Inten    --      0.5222                 0.7337               110.0304
  Atom  AN      X      Y      Z        X      Y      Z        X      Y      Z
     1   1     0.01   0.01  -0.01     0.04   0.00  -0.05    -0.00  -0.00   0.00
     2  16     0.00   0.00  -0.00    -0.00   0.00  -0.00    -0.00   0.00  -0.00
     3   8     0.00  -0.00   0.00     0.00  -0.00   0.00    -0.06   0.00  -0.03
     4   8    -0.00  -0.00  -0.00    -0.00  -0.00  -0.00     0.00  -0.00  -0.00
     5   8    -0.00   0.00   0.00     0.00   0.00   0.00    -0.00  -0.00   0.00
     6   8     0.00  -0.00   0.00     0.00  -0.00   0.00     0.00  -0.00   0.00
     7   1     0.00  -0.00   0.00     0.00  -0.00   0.00     0.88  -0.00   0.46
     8   7    -0.00  -0.00   0.00    -0.00  -0.00   0.00     0.00   0.00   0.00
     9   1     0.01   0.01   0.01     0.02   0.00   0.03    -0.00  -0.00  -0.00
    10   6     0.04   0.03  -0.00    -0.06  -0.05   0.00    -0.00   0.00   0.00
    11   1    -0.10  -0.01  -0.15     0.16   0.01   0.23     0.00  -0.00   0.00
    12   1    -0.10  -0.00   0.17     0.18   0.00  -0.28     0.00  -0.00  -0.00
    13   1    -0.25  -0.39   0.01     0.39   0.60  -0.01    -0.00   0.00  -0.00
    14   6    -0.07   0.04   0.00    -0.05   0.02   0.00    -0.00  -0.00   0.00
    15   1     0.18   0.03   0.26     0.11   0.02   0.16     0.00   0.00   0.00
    16   1     0.52  -0.50  -0.01     0.32  -0.31  -0.01    -0.00  -0.00  -0.00
    17   1     0.15   0.03  -0.25     0.10   0.02  -0.17     0.00   0.00  -0.00

 -------------------
 - Thermochemistry -
 -------------------
 Temperature   298.150 Kelvin.  Pressure   1.00000 Atm.
 Atom     1 has atomic number  1 and mass   1.00783
 Atom     2 has atomic number 16 and mass  31.97207
 Atom     3 has atomic number  8 and mass  15.99491
 Atom     4 has atomic number  8 and mass  15.99491
 Atom     5 has atomic number  8 and mass  15.99491
 Atom     6 has atomic number  8 and mass  15.99491
 Atom     7 has atomic number  1 and mass   1.00783
 Atom     8 has atomic number  7 and mass  14.00307
 Atom     9 has atomic number  1 and mass   1.00783
 Atom    10 has atomic number  6 and mass  12.00000
 Atom    11 has atomic number  1 and mass   1.00783
 Atom    12 has atomic number  1 and mass   1.00783
 Atom    13 has atomic number  1 and mass   1.00783
 Atom    14 has atomic number  6 and mass  12.00000
 Atom    15 has atomic number  1 and mass   1.00783
 Atom    16 has atomic number  1 and mass   1.00783
 Atom    17 has atomic number  1 and mass   1.00783
 Molecular mass:   143.02523 amu.
 Principal axes and moments of inertia in atomic units:
                           1         2         3
     Eigenvalues --   556.400761958.643612140.78279
           X            0.99996  -0.00894   0.00220
           Y            0.00897   0.99988  -0.01261
           Z           -0.00209   0.01263   0.99992
 This molecule is an asymmetric top.
 Rotational symmetry number  1.
 Warning -- assumption of classical behavior for rotation
           may cause significant error
 Rotational temperatures (Kelvin)      0.15567     0.04422     0.04046
 Rotational constants (GHZ):           3.24360     0.92142     0.84303
 Zero-point vibrational energy     358954.2 (Joules/Mol)
                                   85.79211 (Kcal/Mol)
 Warning -- explicit consideration of  15 degrees of freedom as
           vibrations may cause significant error
 Vibrational temperatures:     19.67    80.60    91.44    95.73   210.85
          (Kelvin)            286.14   296.73   313.47   469.61   536.11
                              579.48   632.11   792.53   811.00   831.81
                             1141.98  1187.59  1362.45  1494.31  1540.85
                             1543.25  1636.78  1670.96  1684.56  1816.88
                             1825.24  1919.84  2101.62  2122.31  2140.06
                             2160.28  2188.25  2189.38  2195.03  2307.30
                             2414.54  4301.20  4437.60  4446.08  4504.64
                             4585.46  4587.41  4605.02  4605.77  5580.60
 
 Zero-point correction=                           0.136718 (Hartree/Particle)
 Thermal correction to Energy=                    0.147458
 Thermal correction to Enthalpy=                  0.148402
 Thermal correction to Gibbs Free Energy=         0.097916
 Sum of electronic and zero-point Energies=           -835.166277
 Sum of electronic and thermal Energies=              -835.155537
 Sum of electronic and thermal Enthalpies=            -835.154593
 Sum of electronic and thermal Free Energies=         -835.205079
 
                     E (Thermal)             CV                S
                      KCal/Mol        Cal/Mol-Kelvin    Cal/Mol-Kelvin
 Total                   92.531             35.030            106.256
 Electronic               0.000              0.000              0.000
 Translational            0.889              2.981             40.785
 Rotational               0.889              2.981             29.235
 Vibrational             90.754             29.068             36.236
 Vibration     1          0.593              1.986              7.390
 Vibration     2          0.596              1.975              4.593
 Vibration     3          0.597              1.972              4.344
 Vibration     4          0.598              1.970              4.253
 Vibration     5          0.617              1.906              2.717
 Vibration     6          0.637              1.841              2.143
 Vibration     7          0.641              1.831              2.077
 Vibration     8          0.646              1.814              1.977
 Vibration     9          0.710              1.623              1.278
 Vibration    10          0.744              1.528              1.069
 Vibration    11          0.768              1.464              0.953
 Vibration    12          0.799              1.384              0.829
 Vibration    13          0.906              1.138              0.542
 Vibration    14          0.919              1.110              0.517
 Vibration    15          0.935              1.079              0.489
                       Q            Log10(Q)             Ln(Q)
 Total Bot       0.915780D-45        -45.038209       -103.704308
 Total V=0       0.704445D+18         17.847847         41.096186
 Vib (Bot)       0.249124D-58        -58.603585       -134.939741
 Vib (Bot)    1  0.151544D+02          1.180538          2.718290
 Vib (Bot)    2  0.368793D+01          0.566783          1.305066
 Vib (Bot)    3  0.324773D+01          0.511580          1.177957
 Vib (Bot)    4  0.310131D+01          0.491545          1.131823
 Vib (Bot)    5  0.138503D+01          0.141459          0.325720
 Vib (Bot)    6  0.100302D+01          0.001310          0.003016
 Vib (Bot)    7  0.964470D+00         -0.015711         -0.036176
 Vib (Bot)    8  0.908691D+00         -0.041584         -0.095750
 Vib (Bot)    9  0.573712D+00         -0.241306         -0.555628
 Vib (Bot)   10  0.487718D+00         -0.311831         -0.718017
 Vib (Bot)   11  0.441641D+00         -0.354931         -0.817259
 Vib (Bot)   12  0.393683D+00         -0.404853         -0.932209
 Vib (Bot)   13  0.284669D+00         -0.545660         -1.256428
 Vib (Bot)   14  0.274745D+00         -0.561071         -1.291914
 Vib (Bot)   15  0.264065D+00         -0.578290         -1.331561
 Vib (V=0)       0.191633D+05          4.282471          9.860753
 Vib (V=0)    1  0.156626D+02          1.194865          2.751278
 Vib (V=0)    2  0.422167D+01          0.625485          1.440232
 Vib (V=0)    3  0.378599D+01          0.578180          1.331309
 Vib (V=0)    4  0.364135D+01          0.561263          1.292355
 Vib (V=0)    5  0.197252D+01          0.295020          0.679310
 Vib (V=0)    6  0.162074D+01          0.209712          0.482881
 Vib (V=0)    7  0.158637D+01          0.200405          0.461449
 Vib (V=0)    8  0.153717D+01          0.186722          0.429942
 Vib (V=0)    9  0.126102D+01          0.100721          0.231918
 Vib (V=0)   10  0.119848D+01          0.078629          0.181051
 Vib (V=0)   11  0.116712D+01          0.067115          0.154537
 Vib (V=0)   12  0.113639D+01          0.055526          0.127853
 Vib (V=0)   13  0.107536D+01          0.031553          0.072653
 Vib (V=0)   14  0.107051D+01          0.029592          0.068138
 Vib (V=0)   15  0.106545D+01          0.027532          0.063394
 Electronic      0.100000D+01          0.000000          0.000000
 Translational   0.672315D+08          7.827573         18.023653
 Rotational      0.546768D+06          5.737803         13.211781
 ***** Axes restored to original set *****
 -------------------------------------------------------------------
 Center     Atomic                   Forces (Hartrees/Bohr)
 Number     Number              X              Y              Z
 -------------------------------------------------------------------
      1        1          -0.000015444    0.000009086   -0.000017106
      2       16           0.000013228   -0.000037620    0.000007977
      3        8          -0.000004384    0.000028073   -0.000011589
      4        8          -0.000002746    0.000002283    0.000034360
      5        8           0.000019283    0.000019377    0.000001981
      6        8          -0.000015060   -0.000014495   -0.000014531
      7        1          -0.000002247   -0.000001583    0.000009053
      8        7           0.000007737   -0.000002126    0.000024968
      9        1           0.000000734   -0.000001824   -0.000030735
     10        6          -0.000004446    0.000004392    0.000001054
     11        1           0.000002441    0.000000620   -0.000002384
     12        1          -0.000002247   -0.000003558   -0.000002217
     13        1          -0.000000345   -0.000000868    0.000002518
     14        6           0.000003093   -0.000001002    0.000002373
     15        1           0.000000867   -0.000001181   -0.000002150
     16        1           0.000000725    0.000000419   -0.000001426
     17        1          -0.000001189    0.000000009   -0.000002146
 -------------------------------------------------------------------
 Cartesian Forces:  Max     0.000037620 RMS     0.000012241

 GradGradGradGradGradGradGradGradGradGradGradGradGradGradGradGradGradGrad
 Berny optimization.
 Search for a local minimum.
 Step number   1 out of a maximum of    2
 All quantities printed in internal units (Hartrees-Bohrs-Radians)
 Second derivative matrix not updated -- analytic derivatives used.
 ITU=  0
     Eigenvalues ---    0.00003   0.00033   0.00075   0.00085   0.00162
     Eigenvalues ---    0.00193   0.00325   0.00829   0.01951   0.02547
     Eigenvalues ---    0.03310   0.03977   0.05481   0.06307   0.06620
     Eigenvalues ---    0.08168   0.08229   0.08958   0.09097   0.09906
     Eigenvalues ---    0.11043   0.11231   0.12880   0.12917   0.14478
     Eigenvalues ---    0.18706   0.19504   0.19851   0.21928   0.25933
     Eigenvalues ---    0.27344   0.42296   0.47069   0.58751   0.69390
     Eigenvalues ---    0.79712   0.80531   0.82651   0.85367   0.86451
     Eigenvalues ---    0.95912   1.00180   1.08107   1.21864   1.54978
 Angle between quadratic step and forces=  83.50 degrees.
 Linear search not attempted -- first point.
 B after Tr=     0.000336   -0.000648   -0.000622
         Rot=    1.000000   -0.000114   -0.000022   -0.000134 Ang=  -0.02 deg.
 Variable       Old X    -DE/DX   Delta X   Delta X   Delta X     New X
                                 (Linear)    (Quad)   (Total)
    X1        2.31569  -0.00002   0.00000  -0.00680  -0.00636   2.30933
    Y1       -0.15070   0.00001   0.00000   0.00858   0.00821  -0.14249
    Z1        1.52369  -0.00002   0.00000  -0.00864  -0.00940   1.51429
    X2       -2.43849   0.00001   0.00000   0.00066   0.00107  -2.43741
    Y2       -0.27702  -0.00004   0.00000  -0.00093  -0.00224  -0.27926
    Z2        0.02113   0.00001   0.00000  -0.00143  -0.00201   0.01912
    X3       -3.54843  -0.00000   0.00000  -0.00554  -0.00590  -3.55434
    Y3        2.61274   0.00003   0.00000  -0.00334  -0.00495   2.60779
    Z3        0.06064  -0.00001   0.00000   0.00313   0.00327   0.06390
    X4       -0.82362  -0.00000   0.00000  -0.00232  -0.00198  -0.82560
    Y4       -0.40269   0.00000   0.00000   0.00467   0.00432  -0.39837
    Z4       -2.28639   0.00003   0.00000  -0.00318  -0.00386  -2.29025
    X5       -4.62714   0.00002   0.00000   0.00376   0.00462  -4.62252
    Y5       -1.93223   0.00002   0.00000  -0.00513  -0.00702  -1.93925
    Z5       -0.01760   0.00000   0.00000   0.00122   0.00036  -0.01723
    X6       -0.85180  -0.00002   0.00000   0.00422   0.00475  -0.84705
    Y6       -0.33103  -0.00001   0.00000  -0.00061  -0.00201  -0.33304
    Z6        2.33088  -0.00001   0.00000  -0.00336  -0.00402   2.32686
    X7       -5.15976  -0.00000   0.00000  -0.01229  -0.01268  -5.17244
    Y7        2.58202  -0.00000   0.00000  -0.00865  -0.01051   2.57151
    Z7       -0.79709   0.00001   0.00000   0.01604   0.01624  -0.78085
    X8        3.59148   0.00001   0.00000   0.00014   0.00049   3.59196
    Y8       -0.02827  -0.00000   0.00000   0.00510   0.00541  -0.02286
    Z8        0.01399   0.00002   0.00000  -0.00430  -0.00509   0.00890
    X9        2.24112   0.00000   0.00000   0.00577   0.00608   2.24721
    Y9       -0.17556  -0.00000   0.00000   0.00736   0.00764  -0.16792
    Z9       -1.44274  -0.00003   0.00000  -0.00860  -0.00936  -1.45210
   X10        5.33530  -0.00000   0.00000  -0.00686  -0.00593   5.32937
   Y10       -2.20012   0.00000   0.00000  -0.00065   0.00013  -2.19999
   Z10       -0.00847   0.00000   0.00000   0.00392   0.00256  -0.00591
   X11        6.55588   0.00000   0.00000  -0.01222  -0.01124   6.54464
   Y11       -2.12383   0.00000   0.00000  -0.00249  -0.00175  -2.12559
   Z11        1.65183  -0.00000   0.00000   0.00793   0.00653   1.65837
   X12        6.48138  -0.00000   0.00000  -0.00095  -0.00011   6.48126
   Y12       -2.14371  -0.00000   0.00000  -0.00678  -0.00530  -2.14901
   Z12       -1.72166  -0.00000   0.00000   0.00766   0.00626  -1.71540
   X13        4.22013  -0.00000   0.00000  -0.01283  -0.01144   4.20869
   Y13       -3.93174  -0.00000   0.00000   0.00316   0.00364  -3.92811
   Z13        0.02501   0.00000   0.00000   0.00274   0.00104   0.02604
   X14        4.79653   0.00000   0.00000   0.00849   0.00816   4.80470
   Y14        2.48468  -0.00000   0.00000   0.00105   0.00169   2.48638
   Z14       -0.03213   0.00000   0.00000  -0.00112  -0.00139  -0.03352
   X15        6.00268   0.00000   0.00000   0.00217   0.00185   6.00454
   Y15        2.70307  -0.00000   0.00000  -0.00195  -0.00136   2.70171
   Z15        1.62601  -0.00000   0.00000   0.00386   0.00358   1.62959
   X16        3.31249   0.00000   0.00000   0.01327   0.01256   3.32505
   Y16        3.91374   0.00000   0.00000   0.00611   0.00636   3.92010
   Z16       -0.00906  -0.00000   0.00000  -0.00814  -0.00802  -0.01708
   X17        5.92273  -0.00000   0.00000   0.01652   0.01606   5.93879
   Y17        2.67532   0.00000   0.00000  -0.00361  -0.00227   2.67305
   Z17       -1.74874  -0.00000   0.00000   0.00360   0.00332  -1.74542
         Item               Value     Threshold  Converged?
 Maximum Force            0.000038     0.000450     YES
 RMS     Force            0.000012     0.000300     YES
 Maximum Displacement     0.016236     0.001800     NO 
 RMS     Displacement     0.006646     0.001200     NO 
 Predicted change in Energy=-2.243759D-07
 GradGradGradGradGradGradGradGradGradGradGradGradGradGradGradGradGradGrad


 ----------------------------------------------------------------------

 Electric dipole moment (input orientation):
 (Debye = 10**-18 statcoulomb cm , SI units = C m)
                  (au)            (Debye)         (10**-30 SI)
   Tot        0.353243D+01      0.897855D+01      0.299492D+02
   x          0.343998D+01      0.874355D+01      0.291653D+02
   y          0.750804D+00      0.190835D+01      0.636558D+01
   z         -0.284481D+00     -0.723078D+00     -0.241193D+01

 Dipole polarizability, Alpha (input orientation).
 (esu units = cm**3 , SI units = C**2 m**2 J**-1)
 Alpha(0;0):
               (au)            (10**-24 esu)      (10**-40 SI)
   iso        0.683387D+02      0.101267D+02      0.112675D+02
   aniso      0.195767D+02      0.290096D+01      0.322776D+01
   xx         0.809868D+02      0.120010D+02      0.133529D+02
   yx         0.595599D+00      0.882586D-01      0.982009D-01
   yy         0.646512D+02      0.958033D+01      0.106595D+02
   zx         0.668533D+00      0.990664D-01      0.110226D+00
   zy        -0.118126D+00     -0.175045D-01     -0.194764D-01
   zz         0.593780D+02      0.879891D+01      0.979011D+01

 ----------------------------------------------------------------------

 Dipole orientation:
     1         -1.52259807         -0.98843792          2.10034508
    16          0.11835259          0.28103115         -2.43524396
     8         -0.53578629          3.27027463         -2.90511354
     8          2.34306656          0.28846145         -0.70352214
     8          0.59740443         -0.79192694         -4.91530067
     8         -2.16861095         -0.61843577         -1.08758175
     1          0.35700594          3.78609748         -4.41172344
     7         -0.12004012         -0.83834029          3.49033915
     1          1.37412579         -0.36479257          2.26133933
     6          0.33598576         -3.29126835          4.72871342
     1         -1.33636276         -3.84638264          5.79985154
     1          1.95564579         -3.13148858          5.99475302
     1          0.72821341         -4.69388416          3.27198584
     6         -0.67866113          1.28967393          5.20168876
     1         -2.38043845          0.87337978          6.28915210
     1         -0.97622468          2.97769062          4.05837391
     1          0.91473949          1.58228059          6.47717392

 Electric dipole moment (dipole orientation):
 (Debye = 10**-18 statcoulomb cm , SI units = C m)
                  (au)            (Debye)         (10**-30 SI)
   Tot        0.353243D+01      0.897855D+01      0.299492D+02
   x          0.000000D+00      0.000000D+00      0.000000D+00
   y          0.000000D+00      0.000000D+00      0.000000D+00
   z          0.353243D+01      0.897855D+01      0.299492D+02

 Dipole polarizability, Alpha (dipole orientation).
 (esu units = cm**3 , SI units = C**2 m**2 J**-1)
 Alpha(0;0):
               (au)            (10**-24 esu)      (10**-40 SI)
   iso        0.683387D+02      0.101267D+02      0.112675D+02
   aniso      0.195767D+02      0.290096D+01      0.322776D+01
   xx         0.596641D+02      0.884130D+01      0.983728D+01
   yx        -0.708847D+00     -0.105040D+00     -0.116873D+00
   yy         0.650976D+02      0.964647D+01      0.107331D+02
   zx        -0.165763D+01     -0.245635D+00     -0.273306D+00
   zy        -0.326021D+01     -0.483113D+00     -0.537536D+00
   zz         0.802544D+02      0.118925D+02      0.132322D+02

 ----------------------------------------------------------------------
 Unable to Open any file for archive entry.
 1\1\GINC-R05C45\Freq\RwB97XD\6-31++G(d,p)\C2H9N1O4S1\KUBECKAJ\01-Apr-2
 022\0\\# wb97xd 6-31++g** freq\\/scratch/hvehkama/kubeckaj/OTHERS/Myll
 ys19_synergy/Structures_synergy/calcs/DFT_opt/calc-LM/1sa1dma.xyz\\0,1
 \H,1.225412,-0.079746,0.8063\S,-1.290391,-0.146593,0.011183\O,-1.87774
 9,1.382602,0.032089\O,-0.435841,-0.213097,-1.209908\O,-2.448576,-1.022
 491,-0.009313\O,-0.450754,-0.175174,1.233451\H,-2.730428,1.366344,-0.4
 21801\N,1.900527,-0.01496,0.007405\H,1.185951,-0.092904,-0.763465\C,2.
 82332,-1.164256,-0.004481\H,3.469223,-1.123884,0.874113\H,3.429797,-1.
 134402,-0.911061\H,2.233197,-2.080589,0.013233\C,2.538216,1.314837,-0.
 017002\H,3.176484,1.430402,0.860448\H,1.752896,2.071062,-0.004794\H,3.
 134174,1.415717,-0.925392\\Version=ES64L-G16RevC.01\State=1-A\HF=-835.
 302995\RMSD=7.604e-09\RMSF=1.224e-05\ZeroPoint=0.1367184\Thermal=0.147
 4575\ETot=-835.1555374\HTot=-835.1545932\GTot=-835.2050789\Dipole=3.43
 99769,0.7508043,-0.2844807\DipoleDeriv=0.9314758,0.0424583,-0.0985077,
 0.0509899,0.1015489,-0.0078399,-0.3013982,-0.0164678,0.2751178,3.05607
 56,-0.0037459,-0.0083019,-0.0869058,2.33324,0.0005271,-0.0317741,0.012
 3887,2.2866312,-0.8156238,0.3918433,0.0410291,0.4534635,-1.2223285,0.0
 371186,0.0375112,0.0732446,-0.5257182,-1.5104565,0.0142671,0.268461,-0
 .012778,-0.6146275,-0.0057529,0.3616282,-0.0646852,-1.1044872,-1.21499
 ,-0.3649973,-0.0005469,-0.3065802,-0.8924134,0.0120756,-0.0071295,-0.0
 089312,-0.597632,-1.422472,-0.00232,-0.2692634,-0.0423037,-0.5901706,-
 0.0150263,-0.3417613,0.0396828,-1.0997411,0.3233528,-0.0755022,-0.0392
 165,-0.0465647,0.2898973,-0.029933,-0.0357053,-0.0530857,0.307048,-1.0
 108316,-0.0334341,-0.0121558,-0.0592103,-0.3262041,-0.0005858,-0.02827
 89,-0.0021959,-0.3055548,1.0180299,0.0511399,0.1204264,0.0670569,0.100
 8204,0.0109111,0.3509438,0.0215592,0.274521,0.2987503,-0.2116031,0.002
 031,-0.2294088,0.257614,0.0009155,-0.0002318,0.0048016,0.1993334,0.006
 6696,0.0398111,-0.0466753,0.0009612,0.0619078,-0.0612332,-0.0939274,-0
 .0075342,-0.0248041,0.0151409,0.0400112,0.0422614,0.00358,0.0633991,0.
 06125,0.0913577,0.0050978,-0.0303563,0.0436928,-0.0600599,0.0021638,-0
 .0088272,-0.0111932,0.0010502,0.0017946,0.0017765,0.1011797,0.1989845,
 0.2006048,0.0002854,0.2181211,0.3268152,-0.0021276,-0.0019849,-0.00582
 91,0.2003614,0.0190811,-0.0480606,-0.0584296,-0.0100998,0.0554308,0.04
 83339,-0.0938217,-0.0128044,-0.0249648,0.0352297,0.0656508,0.001555,0.
 0180909,0.0109021,0.0007458,0.0016559,-0.0000975,0.0994241,0.0278909,-
 0.0460634,0.0548843,-0.0095849,0.0553615,-0.0504292,0.0911217,0.013079
 8,-0.0303582\Polar=80.9868148,0.5955986,64.6512415,0.6685329,-0.118126
 ,59.3780204\Quadrupole=8.4873033,-1.9182485,-6.5690548,-4.9734135,1.87
 33657,-1.106074\PG=C01 [X(C2H9N1O4S1)]\NImag=0\\0.14330852,0.00784621,
 0.08136473,-0.12806941,-0.01406496,0.25823256,-0.01950601,-0.00125770,
 -0.00474061,0.99051509,0.00218581,0.00173490,-0.00138250,0.19093553,0.
 62467563,-0.03919941,-0.00203908,0.01882605,0.03357996,0.00988329,0.82
 993390,0.00332586,0.00088973,-0.00091650,-0.09914965,0.04625720,-0.005
 04754,0.51479969,-0.00361984,-0.00101492,0.00074429,0.01103270,-0.1800
 2961,-0.01444496,-0.04811734,0.26103875,0.00403411,0.00080348,-0.00234
 279,-0.01090593,-0.00201393,-0.07083949,0.22880110,0.02184914,0.169401
 82,-0.00779920,-0.00010969,0.00660778,-0.21334654,0.00079362,0.1508250
 9,-0.00714274,0.01725957,0.01972611,0.23775312,-0.00018536,-0.00101528
 ,0.00021510,0.00293073,-0.08753689,-0.01144158,0.02647502,-0.00492084,
 -0.02138258,-0.00717989,0.06521023,0.01097865,0.00052273,-0.00411543,0
 .16644364,-0.01090179,-0.33115698,0.01127011,-0.00539599,0.00667902,-0
 .18665913,0.02116335,0.38297391,0.00511002,-0.00050829,-0.00149669,-0.
 41326691,-0.24241200,-0.00719887,0.01406612,0.00457772,-0.00027283,-0.
 02095967,-0.02033485,0.00875866,0.43194462,0.00200835,-0.00012003,-0.0
 0023618,-0.24011913,-0.27358260,-0.00330969,-0.02358222,-0.03697152,0.
 00039527,-0.00820508,0.01292932,-0.00155359,0.28238185,0.28287908,0.00
 649467,-0.00028075,-0.00357211,-0.00618379,-0.00247889,-0.08743653,-0.
 00057322,-0.00076186,0.01506938,0.03757502,0.01605615,0.00402213,0.003
 71490,0.00581292,0.06820497,0.01986231,0.00146779,-0.00441340,-0.21771
 810,-0.00289415,-0.16277226,-0.01364587,0.01189087,-0.02234937,0.02458
 998,0.00116760,0.00984795,-0.01720591,-0.00668318,-0.03582772,0.240570
 08,0.00012168,-0.00626065,0.00036561,-0.00448561,-0.08905242,0.0006358
 2,0.02921696,0.00060216,0.02505966,0.00100413,0.01989683,-0.00053866,-
 0.01836021,0.01243308,-0.01643498,-0.00607273,0.06546255,0.01513768,0.
 00101466,-0.01668221,-0.18014964,0.00482714,-0.35222230,-0.01404691,0.
 00224285,-0.00140152,-0.00906729,-0.00078329,-0.04494979,-0.00691920,0
 .00152799,0.00374335,0.19931748,-0.01137790,0.40536226,-0.00029172,-0.
 00006094,-0.00001383,-0.01479032,0.00605748,-0.01057045,-0.41356776,0.
 00795037,-0.21525999,0.00267868,-0.00094142,0.00056270,-0.00154900,-0.
 00612516,0.00142652,0.00322310,-0.00017031,0.00275759,0.42467096,-0.00
 034075,-0.00034096,0.00031060,0.04150398,-0.00012502,0.01841786,-0.031
 32859,-0.03743841,-0.02383489,-0.00209259,-0.00259721,-0.00166854,-0.0
 0521446,0.00300118,-0.00214235,0.00365849,-0.00675389,0.00293431,-0.00
 673381,0.04410358,-0.00011791,0.00012029,-0.00000574,-0.00301076,0.000
 42875,0.00273229,-0.22042925,-0.00323158,-0.11684625,0.00195418,-0.002
 65344,-0.00453810,0.00166702,-0.00297648,-0.00154452,-0.00118821,0.002
 21617,0.00094910,0.22123868,0.00617703,0.11921886,-0.15032380,-0.00881
 012,0.13488594,0.00945073,-0.00369780,-0.00208480,-0.00232570,0.003847
 03,0.00001279,-0.03386721,-0.00092969,-0.00433996,-0.00483597,-0.00244
 033,0.00045126,-0.02989306,-0.00086181,0.00413324,0.00064515,-0.000289
 21,0.00007621,0.68046029,-0.00891614,-0.06580490,0.01401521,0.00109878
 ,0.00066194,-0.00043548,-0.00064037,0.00094528,0.00004708,-0.00328812,
 0.00501702,-0.00012367,0.00020553,-0.00014258,0.00009391,-0.00223213,0
 .00445904,0.00014358,0.00010615,0.00004358,-0.00004216,0.00778524,0.56
 500857,0.12716523,0.01341551,-0.23373648,0.00007620,-0.00059620,-0.026
 06965,0.00012149,0.00043256,0.00237614,-0.02113680,0.00003002,0.010304
 92,-0.00035413,-0.00016153,0.00477437,0.01871599,0.00031841,0.01044678
 ,0.00019114,-0.00036735,0.00003512,-0.00845161,-0.00044578,0.62678095,
 0.02252224,0.00177967,0.01129574,-0.02146527,0.00355482,0.04235599,0.0
 0314932,-0.00487077,-0.00373402,0.01986289,-0.00102091,-0.01563003,0.0
 0604578,0.00248067,-0.00708006,-0.00809144,-0.00043246,-0.01210296,-0.
 00092436,0.00072923,-0.00018157,-0.15414251,-0.01043275,-0.12011502,0.
 14905215,0.00170820,0.00273128,0.00138537,-0.00107057,0.00203503,0.002
 79032,0.00069694,-0.00155372,-0.00099317,0.00189410,-0.00730064,-0.001
 28504,-0.00049220,-0.00001249,0.00012859,-0.00030558,-0.00106750,-0.00
 071778,-0.00009842,0.00002258,0.00000179,-0.01047098,-0.06646039,-0.01
 439596,0.00916823,0.08282450,-0.01320964,-0.00198876,-0.03311077,0.004
 79556,0.00230793,0.02149649,0.00078040,-0.00152263,-0.00247654,0.00605
 603,-0.00099492,-0.01854108,0.00213879,0.00052381,-0.00411886,-0.00702
 116,-0.00044485,-0.00487515,-0.00033995,0.00025999,-0.00004738,-0.1275
 0932,-0.01490100,-0.21186672,0.11973643,0.01493828,0.23629740,-0.01270
 504,0.01741482,-0.00361862,-0.00159299,-0.00033035,0.00006107,0.000442
 91,-0.00030719,-0.00001560,0.00093765,-0.00054209,-0.00044074,0.000679
 99,0.00041623,-0.00000749,0.00079055,-0.00042433,0.00038688,-0.0001074
 3,0.00001839,0.00000012,-0.15462692,0.06441106,0.00132564,-0.01315367,
 0.01829676,0.00386444,0.58070812,0.00581407,0.00160423,-0.00399901,0.0
 0402973,0.00056663,-0.00014583,-0.00069118,0.00069242,-0.00003057,-0.0
 0493949,-0.00079908,-0.00029423,-0.00156515,-0.00099368,0.00003783,-0.
 00452278,-0.00080578,0.00025818,0.00016011,-0.00005013,0.00002741,0.05
 731945,-0.16810663,-0.00103071,0.00639812,0.00206902,0.00442254,0.0695
 9447,0.54404854,0.01162015,-0.02480848,0.00700832,0.00005904,-0.000042
 56,-0.00436552,-0.00000422,0.00002010,0.00030201,-0.00362276,-0.000960
 07,0.00029248,-0.00002837,-0.00001205,0.00084575,0.00354221,0.00091760
 ,0.00043740,0.00002886,-0.00003374,0.00001173,0.00066785,-0.00043031,-
 0.09885441,-0.01041769,0.02382285,0.00724393,0.00031635,-0.00113765,0.
 62229597,0.00006871,-0.00031383,-0.00105754,0.00084094,-0.00013222,-0.
 00142178,-0.00011851,0.00015115,0.00014658,-0.00168867,-0.00017878,0.0
 0025686,-0.00026521,-0.00012202,0.00026559,-0.00005837,-0.00005616,0.0
 0057871,0.00003982,-0.00002735,0.00000238,-0.01868927,0.00240971,-0.01
 995974,0.00088240,0.00371750,0.00246244,-0.14294627,-0.00786580,-0.126
 85724,0.15602331,-0.00095835,0.00082038,0.00022513,-0.00046462,-0.0000
 4725,0.00068372,0.00005663,-0.00010056,-0.00002877,0.00159399,0.000437
 56,0.00010883,0.00020007,0.00012916,-0.00014191,0.00009644,0.00002762,
 -0.00008679,-0.00001896,0.00001285,-0.00000733,0.02359251,-0.00376842,
 0.02716960,0.00051593,-0.00478742,-0.00213531,-0.01346439,-0.05225857,
 -0.01784360,0.00221481,0.05576751,0.00036492,0.00043195,0.00043757,0.0
 0030021,-0.00009055,-0.00012458,-0.00008039,0.00010772,0.00001539,-0.0
 0023845,0.00009891,0.00006994,-0.00011346,-0.00002792,0.00001326,-0.00
 018810,0.00001697,-0.00002533,0.00001676,-0.00000941,0.00000213,0.0019
 2717,-0.00013973,0.00425472,0.00113204,-0.00075757,0.00102629,-0.13275
 476,-0.01104751,-0.23627294,0.14319467,0.01253771,0.24627167,0.0005585
 3,0.00373783,-0.00231979,0.00078020,-0.00008104,0.00143761,-0.00010873
 ,0.00010355,-0.00016458,-0.00005077,-0.00007678,-0.00061746,-0.0002305
 0,-0.00011036,-0.00026469,-0.00156885,-0.00019123,-0.00031848,0.000012
 34,0.00000829,0.00000872,-0.01782811,0.00254862,0.02088391,0.00015144,
 -0.00030200,0.00112242,-0.13173151,-0.00587650,0.12244522,0.01312161,0
 .00035629,-0.01661816,0.14366315,0.00080771,-0.00477986,0.00198317,-0.
 00044379,-0.00005557,-0.00066396,0.00005940,-0.00010339,0.00004847,0.0
 0010723,0.00001492,0.00007632,0.00018610,0.00011948,0.00013055,0.00149
 442,0.00041003,-0.00004709,-0.00001110,0.00000564,-0.00000371,0.022295
 20,-0.00399113,-0.02800553,-0.00098006,0.00079535,-0.00022300,-0.01121
 511,-0.05190914,0.01618145,0.00046075,-0.00014200,-0.00206626,0.000038
 01,0.05554370,-0.00112497,0.00068285,0.00113352,-0.00031898,0.00009226
 ,-0.00012905,0.00008493,-0.00010456,0.00002895,0.00022712,-0.00001964,
 -0.00002338,0.00011973,0.00003043,0.00001459,0.00025852,-0.00008750,0.
 00007121,-0.00001281,0.00000454,-0.00000766,-0.00122223,0.00012448,0.0
 0376255,-0.00037791,-0.00041728,0.00036961,0.12850601,0.00906672,-0.24
 813232,0.01522801,0.00183116,-0.01812666,-0.13885325,-0.01026127,0.259
 25135,0.00122193,-0.00001116,0.00019524,-0.00068793,0.00052558,0.00001
 406,0.00016547,-0.00024371,0.00000386,0.00026082,-0.00038734,0.0000615
 0,0.00012160,-0.00007874,-0.00000068,0.00024852,-0.00036539,-0.0000661
 5,-0.00002395,0.00000094,-0.00000382,0.01347849,0.02741189,-0.00053127
 ,0.00123324,0.00005124,-0.00020396,-0.14198606,-0.13825459,0.00274973,
 -0.00835985,-0.01427293,0.00275742,-0.00787685,-0.01330811,-0.00216328
 ,0.14525785,-0.00103484,-0.00035937,-0.00003795,0.00072911,-0.00050142
 ,0.00002079,-0.00016643,0.00022502,-0.00001479,0.00002835,0.00036275,0
 .00002175,-0.00011076,0.00003508,-0.00000484,0.,0.00034571,-0.00002092
 ,0.00001062,0.00000947,0.00000630,-0.01325091,-0.02680703,0.00051956,-
 0.00109306,-0.00037773,0.00001498,-0.12563254,-0.24382177,0.00376921,0
 .00050997,0.00186603,0.00020238,0.00066279,0.00211602,-0.00023325,0.13
 488237,0.26960803,-0.00002596,-0.00083097,0.00009423,-0.00000072,0.000
 03053,0.00166566,-0.00000575,-0.00003932,-0.00022521,0.00054045,-0.000
 28655,-0.00063898,0.00000798,0.00000396,-0.00027719,-0.00052995,0.0002
 4034,-0.00063946,-0.00001715,0.00003290,0.00000218,-0.00019781,-0.0004
 3367,-0.00097016,0.00000428,0.00084538,0.00009363,0.00261185,0.0040306
 2,-0.05148869,-0.01357725,-0.02298744,0.00225906,0.01400903,0.02359646
 ,0.00150743,-0.00286886,-0.00415082,0.04764571,-0.00738366,-0.01983040
 ,-0.00376923,-0.00109914,-0.00018224,-0.00000198,0.00022891,-0.0001028
 9,0.00001135,-0.00006197,0.00074337,-0.00029614,0.00051568,0.00015129,
 0.00000612,-0.00003976,0.00065806,0.00024814,-0.00002361,0.00007518,-0
 .00002628,-0.12814516,-0.05434601,0.00151555,-0.00746886,-0.02067475,0
 .00454661,0.01604607,0.02080977,-0.00055013,0.00060902,0.00123623,0.00
 034210,0.00058015,0.00113085,-0.00036763,-0.00375386,0.00528729,0.0000
 4342,0.61052770,-0.00811122,-0.00365468,0.00322330,-0.00452700,0.00281
 098,0.00012011,0.00080892,-0.00186030,0.00008958,0.00527553,-0.0007179
 0,0.00007542,0.00150759,0.00026557,-0.00004498,0.00481499,-0.00070060,
 -0.00003719,-0.00012537,0.00000419,-0.00003402,-0.04730870,-0.19257537
 ,0.00220550,-0.00892169,-0.00416854,-0.00337191,-0.00973090,-0.0314262
 5,0.00034611,-0.00149069,0.00245188,0.00005981,-0.00149445,0.00238646,
 -0.00000220,0.00249689,-0.00176076,-0.00003509,-0.05417927,0.51261372,
 0.00669292,0.02740579,0.00609093,0.00007635,-0.00004429,-0.00398050,0.
 00002522,0.00005643,0.00054130,-0.00336806,0.00069589,0.00030815,-0.00
 004144,-0.00003231,0.00054309,0.00310122,-0.00059666,0.00048462,0.0000
 2946,-0.00005632,0.00000986,0.00102096,0.00145519,-0.09824126,-0.00553
 245,-0.02590954,0.00702433,-0.00034863,-0.00014965,-0.00022776,0.00043
 383,0.00163326,0.00033475,-0.00039787,-0.00173020,0.00039809,0.0000703
 6,-0.00012087,0.00019380,0.00071730,0.00229226,0.62303726,-0.00015998,
 0.00003208,-0.00102022,0.00074450,0.00008362,-0.00125976,-0.00015017,0
 .00012975,0.00017625,-0.00124219,0.00001439,0.00029834,-0.00018197,-0.
 00008712,0.00020006,-0.00003154,0.00009446,0.00060191,0.00003865,-0.00
 003341,-0.00000110,-0.01215206,-0.00438445,-0.01315624,0.00143751,-0.0
 0239216,0.00184625,0.00063515,0.00108343,0.00078225,0.00046835,-0.0003
 9751,-0.00014792,0.00004828,-0.00013731,0.00009710,-0.00001168,0.00002
 111,0.00014035,-0.14322070,-0.01456693,-0.12770928,0.15199394,0.000795
 96,0.00101884,-0.00051729,0.00062728,-0.00045925,-0.00085062,-0.000084
 07,0.00030601,0.00005641,-0.00190675,0.00045128,-0.00005803,-0.0001799
 9,-0.00005553,0.00015126,-0.00017485,0.00009033,0.00017452,0.00001484,
 -0.00000744,0.00001590,-0.02556001,-0.01061712,-0.03075033,0.00083906,
 -0.00561266,0.00258915,-0.00165859,0.00239807,-0.00151021,0.00057763,-
 0.00031066,0.00063882,0.00019536,-0.00020418,0.00004450,0.00013184,0.0
 0015498,0.00032040,-0.00891907,-0.05230866,-0.01313928,0.02158078,0.06
 021645,0.00043646,-0.00037489,0.00046398,0.00028138,-0.00002248,-0.000
 10624,-0.00006143,0.00004708,0.00001981,-0.00020133,-0.00009531,0.0000
 6899,-0.00013389,-0.00005594,0.00001510,-0.00018308,-0.00001296,-0.000
 04137,0.00002195,-0.00000421,-0.00000720,0.00207821,0.00075916,0.00451
 902,0.00092978,0.00103373,0.00099755,0.00035739,0.00000018,0.00035149,
 -0.00000762,-0.00065584,-0.00006250,-0.00012030,0.00003347,-0.00022658
 ,0.00023680,-0.00005269,0.00014902,-0.13197770,-0.02112545,-0.23629623
 ,0.14240925,0.02206458,0.24616040,0.00099157,0.00026009,0.00013262,-0.
 00039624,-0.00075463,0.00000166,0.00017168,0.00019083,-0.00000043,0.00
 009589,0.00034245,0.00014726,0.00015949,0.00018242,0.00000661,0.000118
 73,0.00033902,-0.00014141,-0.00002682,0.00008693,-0.00002373,0.0144153
 0,-0.01763505,-0.00023987,0.00098853,0.00020793,-0.00015116,-0.0019716
 9,-0.00256017,0.00006281,0.00002393,-0.00014760,0.00021219,0.00000697,
 -0.00013491,-0.00020730,0.00073862,-0.00086653,-0.00000081,-0.20634789
 ,0.14719516,0.00245030,-0.01081901,0.01123022,0.00262022,0.21188821,0.
 00140326,-0.00013730,0.00002324,-0.00111891,-0.00069677,-0.00003229,0.
 00025333,-0.00005066,0.00002909,-0.00004582,0.00049372,0.00002690,0.00
 028191,0.00013214,0.00001237,0.00002079,0.00050452,-0.00003836,-0.0000
 2953,0.00006737,-0.00002909,0.02284558,-0.02789502,-0.00038386,0.00145
 796,-0.00016753,0.00000188,-0.00527989,-0.00358510,0.00015523,-0.00004
 908,0.00010728,0.00010313,-0.00006041,0.00011581,-0.00009875,0.0013104
 1,-0.00125164,-0.00001285,0.13435340,-0.17956508,-0.00208650,-0.003705
 68,0.00457849,0.00040875,-0.14820383,0.20308182,-0.00021871,0.00080715
 ,0.00011188,0.00001186,-0.00002042,0.00191600,0.00001268,0.00005958,-0
 .00032680,0.00055292,0.00034960,-0.00072861,0.00001034,0.00001106,-0.0
 0031645,-0.00056949,-0.00036181,-0.00072977,-0.00004257,-0.00002566,0.
 00003885,-0.00051316,0.00064144,-0.00097860,0.00017983,-0.00081588,0.0
 0010726,0.00009244,0.00008955,0.00018168,0.00020807,-0.00027721,0.0001
 5040,-0.00020429,0.00027942,0.00016746,-0.00001802,0.00003115,0.000455
 42,0.00252649,-0.00242346,-0.05142195,-0.01844574,0.01924223,0.0020719
 4,-0.00264309,0.00220856,0.04766410,0.00119972,-0.00252610,-0.00168150
 ,0.00068766,0.00009077,0.00128140,-0.00014082,0.00012820,-0.00020938,-
 0.00002007,0.00010356,-0.00064222,-0.00014815,-0.00006745,-0.00020311,
 -0.00115036,-0.00001407,-0.00034959,-0.00000371,-0.00002126,0.00003532
 ,-0.01162019,-0.00410196,0.01394951,-0.00007938,0.00006574,0.00108583,
 0.00058114,0.00106650,-0.00079408,0.00004805,-0.00013853,-0.00010624,0
 .00047264,-0.00034927,0.00012694,-0.00002637,0.00002346,-0.00013309,-0
 .13096293,-0.01164285,0.12277980,0.01260292,0.00249036,-0.01668610,-0.
 01003726,-0.00343348,0.01906043,0.13859712,0.00047525,-0.00578642,-0.0
 0225313,0.00059949,-0.00039832,0.00081159,-0.00010392,0.00023429,-0.00
 007949,-0.00018908,0.00007420,-0.00017575,-0.00016287,-0.00004567,-0.0
 0013301,-0.00172599,0.00040897,-0.00001390,0.00001545,0.00004261,-0.00
 001583,-0.02406547,-0.00996683,0.03204608,0.00082801,0.00103086,0.0005
 2384,-0.00156636,0.00237721,0.00156610,0.00019442,-0.00020538,-0.00005
 845,0.00054203,-0.00032214,-0.00065250,0.00011080,0.00015662,-0.000323
 87,-0.00621082,-0.05179466,0.01032679,0.00266496,0.00036106,-0.0019471
 7,0.01026768,0.00426795,-0.01979528,0.01832641,0.05956563,-0.00095880,
 -0.00081652,0.00116650,-0.00031378,0.00002371,-0.00013953,0.00006927,-
 0.00005885,0.00002477,0.00022910,0.00000838,-0.00002720,0.00014147,0.0
 0006023,0.00001968,0.00025939,0.00008474,0.00007217,-0.00001692,0.0000
 0525,-0.00000325,-0.00093474,-0.00032825,0.00346271,-0.00046240,0.0003
 4592,0.00038002,-0.00033635,-0.00009786,0.00037089,0.00010404,-0.00002
 520,-0.00022315,-0.00002805,0.00067171,-0.00005912,-0.00023294,0.00005
 000,0.00017354,0.12703199,0.01866221,-0.24879849,0.01518850,0.00152801
 ,-0.01807718,-0.00222588,-0.00028746,0.00163721,-0.13751391,-0.0198260
 2,0.26002045\\0.00001544,-0.00000909,0.00001711,-0.00001323,0.00003762
 ,-0.00000798,0.00000438,-0.00002807,0.00001159,0.00000275,-0.00000228,
 -0.00003436,-0.00001928,-0.00001938,-0.00000198,0.00001506,0.00001449,
 0.00001453,0.00000225,0.00000158,-0.00000905,-0.00000774,0.00000213,-0
 .00002497,-0.00000073,0.00000182,0.00003074,0.00000445,-0.00000439,-0.
 00000105,-0.00000244,-0.00000062,0.00000238,0.00000225,0.00000356,0.00
 000222,0.00000034,0.00000087,-0.00000252,-0.00000309,0.00000100,-0.000
 00237,-0.00000087,0.00000118,0.00000215,-0.00000073,-0.00000042,0.0000
 0143,0.00000119,0.,0.00000215\\\@
 The archive entry for this job was punched.


 BE NOT THE FIRST BY WHOM THE NEW ARE TRIED,
 NOR YET THE THE LAST TO LAY THE OLD ASIDE.

                          -- ALEXANDER POPE
 Job cpu time:       0 days  0 hours 19 minutes 31.4 seconds.
 Elapsed time:       0 days  0 hours  2 minutes 27.6 seconds.
 File lengths (MBytes):  RWF=     88 Int=      0 D2E=      0 Chk=      4 Scr=      1
 Normal termination of Gaussian 16 at Fri Apr  1 14:09:04 2022.
