 1
energy =  Electronic_Energy: -0.501986425800
H  0.000000  0.000000  0.000000
