
                                 *****************
                                 * O   R   C   A *
                                 *****************

                                            #,                                       
                                            ###                                      
                                            ####                                     
                                            #####                                    
                                            ######                                   
                                           ########,                                 
                                     ,,################,,,,,                         
                               ,,#################################,,                 
                          ,,##########################################,,             
                       ,#########################################, ''#####,          
                    ,#############################################,,   '####,        
                  ,##################################################,,,,####,       
                ,###########''''           ''''###############################       
              ,#####''   ,,,,##########,,,,          '''####'''          '####       
            ,##' ,,,,###########################,,,                        '##       
           ' ,,###''''                  '''############,,,                           
         ,,##''                                '''############,,,,        ,,,,,,###''
      ,#''                                            '''#######################'''  
     '                                                          ''''####''''         
             ,#######,   #######,   ,#######,      ##                                
            ,#'     '#,  ##    ##  ,#'     '#,    #''#        ######   ,####,        
            ##       ##  ##   ,#'  ##            #'  '#       #        #'  '#        
            ##       ##  #######   ##           ,######,      #####,   #    #        
            '#,     ,#'  ##    ##  '#,     ,#' ,#      #,         ##   #,  ,#        
             '#######'   ##     ##  '#######'  #'      '#     #####' # '####'        



                  #######################################################
                  #                        -***-                        #
                  #          Department of theory and spectroscopy      #
                  #    Directorship and core code : Frank Neese         #
                  #        Max Planck Institute fuer Kohlenforschung    #
                  #                Kaiser Wilhelm Platz 1               #
                  #                 D-45470 Muelheim/Ruhr               #
                  #                      Germany                        #
                  #                                                     #
                  #                  All rights reserved                #
                  #                        -***-                        #
                  #######################################################


                         Program Version 5.0.3 -  RELEASE  -


 With contributions from (in alphabetic order):
   Daniel Aravena         : Magnetic Suceptibility
   Michael Atanasov       : Ab Initio Ligand Field Theory (pilot matlab implementation)
   Alexander A. Auer      : GIAO ZORA, VPT2 properties, NMR spectrum
   Ute Becker             : Parallelization
   Giovanni Bistoni       : ED, misc. LED, open-shell LED, HFLD
   Martin Brehm           : Molecular dynamics
   Dmytro Bykov           : SCF Hessian
   Vijay G. Chilkuri      : MRCI spin determinant printing, contributions to CSF-ICE
   Dipayan Datta          : RHF DLPNO-CCSD density
   Achintya Kumar Dutta   : EOM-CC, STEOM-CC
   Dmitry Ganyushin       : Spin-Orbit,Spin-Spin,Magnetic field MRCI
   Miquel Garcia          : C-PCM and meta-GGA Hessian, CC/C-PCM, Gaussian charge scheme
   Yang Guo               : DLPNO-NEVPT2, F12-NEVPT2, CIM, IAO-localization
   Andreas Hansen         : Spin unrestricted coupled pair/coupled cluster methods
   Benjamin Helmich-Paris : MC-RPA, TRAH-SCF, COSX integrals
   Lee Huntington         : MR-EOM, pCC
   Robert Izsak           : Overlap fitted RIJCOSX, COSX-SCS-MP3, EOM
   Marcus Kettner         : VPT2
   Christian Kollmar      : KDIIS, OOCD, Brueckner-CCSD(T), CCSD density, CASPT2, CASPT2-K
   Simone Kossmann        : Meta GGA functionals, TD-DFT gradient, OOMP2, MP2 Hessian
   Martin Krupicka        : Initial AUTO-CI
   Lucas Lang             : DCDCAS
   Marvin Lechner         : AUTO-CI (C++ implementation), FIC-MRCC
   Dagmar Lenk            : GEPOL surface, SMD
   Dimitrios Liakos       : Extrapolation schemes; Compound Job, initial MDCI parallelization
   Dimitrios Manganas     : Further ROCIS development; embedding schemes
   Dimitrios Pantazis     : SARC Basis sets
   Anastasios Papadopoulos: AUTO-CI, single reference methods and gradients
   Taras Petrenko         : DFT Hessian,TD-DFT gradient, ASA, ECA, R-Raman, ABS, FL, XAS/XES, NRVS
   Peter Pinski           : DLPNO-MP2, DLPNO-MP2 Gradient
   Christoph Reimann      : Effective Core Potentials
   Marius Retegan         : Local ZFS, SOC
   Christoph Riplinger    : Optimizer, TS searches, QM/MM, DLPNO-CCSD(T), (RO)-DLPNO pert. Triples
   Tobias Risthaus        : Range-separated hybrids, TD-DFT gradient, RPA, STAB
   Michael Roemelt        : Original ROCIS implementation
   Masaaki Saitow         : Open-shell DLPNO-CCSD energy and density
   Barbara Sandhoefer     : DKH picture change effects
   Avijit Sen             : IP-ROCIS
   Kantharuban Sivalingam : CASSCF convergence, NEVPT2, FIC-MRCI
   Bernardo de Souza      : ESD, SOC TD-DFT
   Georgi Stoychev        : AutoAux, RI-MP2 NMR, DLPNO-MP2 response
   Willem Van den Heuvel  : Paramagnetic NMR
   Boris Wezisla          : Elementary symmetry handling
   Frank Wennmohs         : Technical directorship


 We gratefully acknowledge several colleagues who have allowed us to
 interface, adapt or use parts of their codes:
   Stefan Grimme, W. Hujo, H. Kruse, P. Pracht,  : VdW corrections, initial TS optimization,
                  C. Bannwarth, S. Ehlert          DFT functionals, gCP, sTDA/sTD-DF
   Ed Valeev, F. Pavosevic, A. Kumar             : LibInt (2-el integral package), F12 methods
   Garnet Chan, S. Sharma, J. Yang, R. Olivares  : DMRG
   Ulf Ekstrom                                   : XCFun DFT Library
   Mihaly Kallay                                 : mrcc  (arbitrary order and MRCC methods)
   Jiri Pittner, Ondrej Demel                    : Mk-CCSD
   Frank Weinhold                                : gennbo (NPA and NBO analysis)
   Christopher J. Cramer and Donald G. Truhlar   : smd solvation model
   Lars Goerigk                                  : TD-DFT with DH, B97 family of functionals
   V. Asgeirsson, H. Jonsson                     : NEB implementation
   FAccTs GmbH                                   : IRC, NEB, NEB-TS, DLPNO-Multilevel, CI-OPT
                                                   MM, QMMM, 2- and 3-layer-ONIOM, Crystal-QMMM,
                                                   LR-CPCM, SF, NACMEs, symmetry and pop. for TD-DFT,
                                                   nearIR, NL-DFT gradient (VV10), updates on ESD,
                                                   ML-optimized integration grids
   S Lehtola, MJT Oliveira, MAL Marques          : LibXC Library
   Liviu Ungur et al                             : ANISO software


 Your calculation uses the libint2 library for the computation of 2-el integrals
 For citations please refer to: http://libint.valeyev.net

 Your ORCA version has been built with support for libXC version: 5.1.0
 For citations please refer to: https://tddft.org/programs/libxc/

 This ORCA versions uses:
   CBLAS   interface :  Fast vector & matrix operations
   LAPACKE interface :  Fast linear algebra routines
   SCALAPACK package :  Parallel linear algebra routines
   Shared memory     :  Shared parallel matrices
   BLAS/LAPACK       :  OpenBLAS 0.3.15  USE64BITINT DYNAMIC_ARCH NO_AFFINITY Prescott SINGLE_THREADED
        Core in use  :  Prescott
   Copyright (c) 2011-2014, The OpenBLAS Project




***************************************
The coordinates will be read from file: 4sa4am-44_10_861.xyz
***************************************


Your calculation utilizes the atom-pairwise dispersion correction
with the Becke-Johnson damping scheme (D3BJ)
Cite in your paper:
S.Grimme, S.Ehrlich, L.Goerigk, J Comput Chem, (2011), 32, 1456–1465 
S.Grimme, J.Antony, S.Ehrlich and H.Krieg, J.Chem.Phys., 132, (2010), 154104 
   

Your calculation employs the composite approach B97-3c by Grimme and coworkers.
For the correct reference, please check the publication list of the Grimme group:
http://www.thch.uni-bonn.de/tc/index.php?section=publikationen&subsection=grimme#2017
   

XCFun DFT library Copyright 2009-2010 Ulf Ekstrom and contributors.
See http://admol.org/xcfun for more information.
This is free software; see the source code for copying conditions.
There is ABSOLUTELY NO WARRANTY; not even for MERCHANTABILITY or FITNESS FOR A PARTICULAR PURPOSE.
For details see the documentation.
Scientific users of this library should cite U. Ekstrom, L. Visscher, R. Bast, A. J. Thorvaldsen and K. Ruud;
J.Chem.Theor.Comp. 2010, DOI: 10.1021/ct100117s
XCFun Version 0.99 

================================================================================

----- Orbital basis set information -----
Your calculation utilizes the basis: def2-mTZVP
----- AuxJ basis set information -----
Your calculation utilizes the basis: def2-mTZVP/J
================================================================================
                                        WARNINGS
                       Please study these warnings very carefully!
================================================================================


INFO   : the flag for use of the SHARK integral package has been found!

================================================================================
                                       INPUT FILE
================================================================================
NAME = 4sa4am-44_10_861.inp
|  1> ! B97-3c ENGRAD
|  2> %pal nprocs 1
|  3>     end
|  4> %Maxcore 3000.00
|  5> * xyzfile 0 1 4sa4am-44_10_861.xyz
|  6>   
|  7> 
|  8>                          ****END OF INPUT****
================================================================================

                     *******************************
                     * Energy+Gradient Calculation *
                     *******************************

---------------------------------
CARTESIAN COORDINATES (ANGSTROEM)
---------------------------------
  S      2.463245   -3.219270   -0.015637
  O      1.756837   -3.206329    1.258673
  O      1.583847   -3.451235   -1.154176
  O      3.332819   -2.070114   -0.179732
  O      3.478339   -4.468943    0.031826
  H      2.962558   -5.280804    0.089131
  S     -2.459244    3.021442    1.119924
  O     -1.742360    2.569643    2.305196
  O     -1.589108    3.634779    0.124906
  O     -3.331305    1.998441    0.575274
  O     -3.472849    4.175398    1.604966
  H     -2.956243    4.918531    1.935551
  S      1.158079    1.878275   -0.387205
  O      0.715978    1.808173   -1.776247
  O      0.194885    1.209936    0.512428
  O      2.505651    1.396918   -0.192985
  O      1.143117    3.400989    0.047354
  H      0.198354    3.661206    0.156039
  S     -1.163694   -1.629352   -1.003919
  O     -0.732835   -1.082196   -2.286430
  O     -0.191937   -1.312747    0.063403
  O     -2.508757   -1.246419   -0.643965
  O     -1.148141   -3.208298   -1.123520
  H     -0.202892   -3.488761   -1.119570
  N      1.826660   -0.746786   -1.938597
  H      2.794762   -0.636458   -1.656644
  H      1.457595    0.115108   -2.338723
  H      1.712919   -1.538095   -2.560084
  H      1.272175   -0.950961   -1.103255
  N     -1.840993    1.369480   -1.545604
  H     -1.476400    0.699686   -2.222243
  H     -1.732118    2.327193   -1.856274
  H     -2.806646    1.166337   -1.310548
  H     -1.278983    1.273571   -0.695959
  N      1.960192   -0.551923    1.696147
  H      1.205052    0.033266    1.307139
  H      2.141365   -0.315979    2.659133
  H      1.716485   -1.556493    1.591166
  H      2.787141   -0.386450    1.127368
  N     -1.944641   -0.072421    1.798631
  H     -2.776378   -0.031982    1.214359
  H     -1.193422   -0.485358    1.224904
  H     -1.700754    0.906781    2.046208
  H     -2.118355   -0.627777    2.621591

----------------------------
CARTESIAN COORDINATES (A.U.)
----------------------------
  NO LB      ZA    FRAG     MASS         X           Y           Z
   0 S    16.0000    0    32.060    4.654858   -6.083539   -0.029549
   1 O     8.0000    0    15.999    3.319940   -6.059083    2.378547
   2 O     8.0000    0    15.999    2.993038   -6.521889   -2.181077
   3 O     8.0000    0    15.999    6.298115   -3.911949   -0.339645
   4 O     8.0000    0    15.999    6.573109   -8.445078    0.060142
   5 H     1.0000    0     1.008    5.598423   -9.979274    0.168433
   6 S    16.0000    0    32.060   -4.647298    5.709698    2.116350
   7 O     8.0000    0    15.999   -3.292584    4.855922    4.356190
   8 O     8.0000    0    15.999   -3.002979    6.868738    0.236038
   9 O     8.0000    0    15.999   -6.295254    3.776506    1.087111
  10 O     8.0000    0    15.999   -6.562734    7.890358    3.032946
  11 H     1.0000    0     1.008   -5.586490    9.294677    3.657661
  12 S    16.0000    0    32.060    2.188453    3.549426   -0.731711
  13 O     8.0000    0    15.999    1.353003    3.416951   -3.356621
  14 O     8.0000    0    15.999    0.368279    2.286448    0.968349
  15 O     8.0000    0    15.999    4.734994    2.639792   -0.364689
  16 O     8.0000    0    15.999    2.160177    6.426938    0.089486
  17 H     1.0000    0     1.008    0.374835    6.918676    0.294872
  18 S    16.0000    0    32.060   -2.199064   -3.079029   -1.897133
  19 O     8.0000    0    15.999   -1.384857   -2.045054   -4.320727
  20 O     8.0000    0    15.999   -0.362709   -2.480733    0.119815
  21 O     8.0000    0    15.999   -4.740863   -2.355391   -1.216917
  22 O     8.0000    0    15.999   -2.169671   -6.062805   -2.123146
  23 H     1.0000    0     1.008   -0.383410   -6.592803   -2.115680
  24 N     7.0000    0    14.007    3.451888   -1.411222   -3.663418
  25 H     1.0000    0     1.008    5.281334   -1.202730   -3.130603
  26 H     1.0000    0     1.008    2.754456    0.217523   -4.419546
  27 H     1.0000    0     1.008    3.236948   -2.906579   -4.837857
  28 H     1.0000    0     1.008    2.404062   -1.797056   -2.084849
  29 N     7.0000    0    14.007   -3.478972    2.587943   -2.920769
  30 H     1.0000    0     1.008   -2.789992    1.322214   -4.199431
  31 H     1.0000    0     1.008   -3.273228    4.397757   -3.507850
  32 H     1.0000    0     1.008   -5.303793    2.204058   -2.476576
  33 H     1.0000    0     1.008   -2.416928    2.406699   -1.315171
  34 N     7.0000    0    14.007    3.704227   -1.042984    3.205253
  35 H     1.0000    0     1.008    2.277218    0.062863    2.470135
  36 H     1.0000    0     1.008    4.046593   -0.597114    5.025034
  37 H     1.0000    0     1.008    3.243687   -2.941345    3.006867
  38 H     1.0000    0     1.008    5.266933   -0.730284    2.130416
  39 N     7.0000    0    14.007   -3.674839   -0.136856    3.398920
  40 H     1.0000    0     1.008   -5.246595   -0.060437    2.294805
  41 H     1.0000    0     1.008   -2.255241   -0.917193    2.314734
  42 H     1.0000    0     1.008   -3.213959    1.713568    3.866772
  43 H     1.0000    0     1.008   -4.003112   -1.186327    4.954089

--------------------------------
INTERNAL COORDINATES (ANGSTROEM)
--------------------------------
 S      0   0   0     0.000000000000     0.00000000     0.00000000
 O      1   0   0     1.457067204596     0.00000000     0.00000000
 O      1   2   0     1.457196032080   113.08877769     0.00000000
 O      1   2   3     1.450395341881   112.49345102   130.28724235
 O      1   2   3     1.610698782490   106.65812110   243.57029805
 H      5   1   2     0.963552366025   108.54903338    64.20466129
 S      2   1   3     7.521948811943   105.24591168   291.41088744
 O      7   2   1     1.457022361119    56.80316503   220.47500544
 O      7   2   1     1.457182583771    91.51201288   337.32004119
 O      7   2   1     1.450401915137    76.11128071    91.21972507
 O      7   2   1     1.610675282603   160.11017004   183.70410319
 H     11   7   2     0.963543170501   108.57062397    95.73643100
 S      9   7   2     3.300697305318   112.26883414   351.21816359
 O     13   9   7     1.459385740828    85.47473480   121.25913621
 O     13   9   7     1.477755422027    66.65490586     5.93292980
 O     13   9   7     1.444083142920   158.93914423   274.92472666
 O     13   9   7     1.583578801040    55.79551363   236.29270345
 H     17  13   9     0.985952020864   107.04269072     1.79376584
 S      3   1   2     3.300124356338   112.27061958    45.47061141
 O     19   3   1     1.459402049557    85.47873749   121.25468795
 O     19   3   1     1.477744344880    66.65161488     5.93024248
 O     19   3   1     1.444090540159   158.94020091   274.92174428
 O     19   3   1     1.583546018535    55.80038917   236.28621263
 H     23  19   3     0.985986692658   107.02183624     1.78346272
 N     20  19   3     2.604707552813   102.76954561   318.08839137
 H     25  20  19     1.014342363649   171.48300103   346.27721114
 H     25  20  19     1.019397590293    72.58448113   228.12173647
 H     25  20  19     1.012596476189    72.96434310   107.34348031
 H     25  20  19     1.023200399226    63.30895400   348.21200400
 N     14  13   9     2.604562947445   102.77990964   318.11237480
 H     30  14  13     1.019505789925    72.59057068   228.12837900
 H     30  14  13     1.012710843455    73.02259802   107.37788449
 H     30  14  13     1.014399272992   171.41738345   346.10877659
 H     30  14  13     1.023206590795    63.26233580   348.25543647
 N      2   1   3     2.697888869519    96.54658107   251.88909227
 H     35   2   1     1.031508524215   116.22114068    88.69888242
 H     35   2   1     1.007887300714   113.50342767   219.29390779
 H     35   2   1     1.039025454384     9.83008338   139.56477851
 H     35   2   1     1.017219151003    97.50765151   335.54514282
 N      8   7   2     2.697782432086    96.54812555   327.72867964
 H     40   8   7     1.017249312978    97.48248757   335.55359153
 H     40   8   7     1.031507764678   116.22438036    88.68852438
 H     40   8   7     1.039044001481     9.84172581   139.67161114
 H     40   8   7     1.007899308106   113.53001889   219.31152826

---------------------------
INTERNAL COORDINATES (A.U.)
---------------------------
 S      0   0   0     0.000000000000     0.00000000     0.00000000
 O      1   0   0     2.753457975405     0.00000000     0.00000000
 O      1   2   0     2.753701424068   113.08877769     0.00000000
 O      1   2   3     2.740849982071   112.49345102   130.28724235
 O      1   2   3     3.043779583147   106.65812110   243.57029805
 H      5   1   2     1.820850087479   108.54903338    64.20466129
 S      2   1   3    14.214423247948   105.24591168   291.41088744
 O      7   2   1     2.753373233514    56.80316503   220.47500544
 O      7   2   1     2.753676010448    91.51201288   337.32004119
 O      7   2   1     2.740862403724    76.11128071    91.21972507
 O      7   2   1     3.043735174797   160.11017004   183.70410319
 H     11   7   2     1.820832710458   108.57062397    95.73643100
 S      9   7   2     6.237413958023   112.26883414   351.21816359
 O     13   9   7     2.757839373914    85.47473480   121.25913621
 O     13   9   7     2.792553040548    66.65490586     5.93292980
 O     13   9   7     2.728921654731   158.93914423   274.92472666
 O     13   9   7     2.992530245449    55.79551363   236.29270345
 H     17  13   9     1.863179300619   107.04269072     1.79376584
 S      3   1   2     6.236331241363   112.27061958    45.47061141
 O     19   3   1     2.757870192946    85.47873749   121.25468795
 O     19   3   1     2.792532107774    66.65161488     5.93024248
 O     19   3   1     2.728935633487   158.94020091   274.92174428
 O     19   3   1     2.992468295492    55.80038917   236.28621263
 H     23  19   3     1.863244820814   107.02183624     1.78346272
 N     20  19   3     4.922183933772   102.76954561   318.08839137
 H     25  20  19     1.916829273331   171.48300103   346.27721114
 H     25  20  19     1.926382267233    72.58448113   228.12173647
 H     25  20  19     1.913530024171    72.96434310   107.34348031
 H     25  20  19     1.933568534655    63.30895400   348.21200400
 N     14  13   9     4.921910669231   102.77990964   318.11237480
 H     30  14  13     1.926586734906    72.59057068   228.12837900
 H     30  14  13     1.913746146983    73.02259802   107.37788449
 H     30  14  13     1.916936816403   171.41738345   346.10877659
 H     30  14  13     1.933580235027    63.26233580   348.25543647
 N      2   1   3     5.098271103145    96.54658107   251.88909227
 H     35   2   1     1.949268615572   116.22114068    88.69888242
 H     35   2   1     1.904630972207   113.50342767   219.29390779
 H     35   2   1     1.963473554959     9.83008338   139.56477851
 H     35   2   1     1.922265613576    97.50765151   335.54514282
 N      8   7   2     5.098069965546    96.54812555   327.72867964
 H     40   8   7     1.922322611449    97.48248757   335.55359153
 H     40   8   7     1.949267180254   116.22438036    88.68852438
 H     40   8   7     1.963508603893     9.84172581   139.67161114
 H     40   8   7     1.904653662890   113.53001889   219.31152826

---------------------
BASIS SET INFORMATION
---------------------
There are 4 groups of distinct atoms

 Group   1 Type S   : 14s9p1d contracted to 5s4p1d pattern {73211/6111/1}
 Group   2 Type O   : 11s6p2d contracted to 5s3p2d pattern {62111/411/11}
 Group   3 Type H   : 5s contracted to 3s pattern {311}
 Group   4 Type N   : 11s6p1d contracted to 5s3p1d pattern {62111/411/1}

Atom   0S    basis set group =>   1
Atom   1O    basis set group =>   2
Atom   2O    basis set group =>   2
Atom   3O    basis set group =>   2
Atom   4O    basis set group =>   2
Atom   5H    basis set group =>   3
Atom   6S    basis set group =>   1
Atom   7O    basis set group =>   2
Atom   8O    basis set group =>   2
Atom   9O    basis set group =>   2
Atom  10O    basis set group =>   2
Atom  11H    basis set group =>   3
Atom  12S    basis set group =>   1
Atom  13O    basis set group =>   2
Atom  14O    basis set group =>   2
Atom  15O    basis set group =>   2
Atom  16O    basis set group =>   2
Atom  17H    basis set group =>   3
Atom  18S    basis set group =>   1
Atom  19O    basis set group =>   2
Atom  20O    basis set group =>   2
Atom  21O    basis set group =>   2
Atom  22O    basis set group =>   2
Atom  23H    basis set group =>   3
Atom  24N    basis set group =>   4
Atom  25H    basis set group =>   3
Atom  26H    basis set group =>   3
Atom  27H    basis set group =>   3
Atom  28H    basis set group =>   3
Atom  29N    basis set group =>   4
Atom  30H    basis set group =>   3
Atom  31H    basis set group =>   3
Atom  32H    basis set group =>   3
Atom  33H    basis set group =>   3
Atom  34N    basis set group =>   4
Atom  35H    basis set group =>   3
Atom  36H    basis set group =>   3
Atom  37H    basis set group =>   3
Atom  38H    basis set group =>   3
Atom  39N    basis set group =>   4
Atom  40H    basis set group =>   3
Atom  41H    basis set group =>   3
Atom  42H    basis set group =>   3
Atom  43H    basis set group =>   3
---------------------------------
AUXILIARY/J BASIS SET INFORMATION
---------------------------------
There are 4 groups of distinct atoms

 Group   1 Type S   : 14s5p5d2f1g contracted to 8s4p3d1f1g pattern {71111111/2111/311/2/1}
 Group   2 Type O   : 8s3p3d contracted to 6s3p3d pattern {311111/111/111}
 Group   3 Type H   : 5s2p contracted to 3s1p pattern {311/2}
 Group   4 Type N   : 8s3p3d contracted to 6s3p3d pattern {311111/111/111}

Atom   0S    basis set group =>   1
Atom   1O    basis set group =>   2
Atom   2O    basis set group =>   2
Atom   3O    basis set group =>   2
Atom   4O    basis set group =>   2
Atom   5H    basis set group =>   3
Atom   6S    basis set group =>   1
Atom   7O    basis set group =>   2
Atom   8O    basis set group =>   2
Atom   9O    basis set group =>   2
Atom  10O    basis set group =>   2
Atom  11H    basis set group =>   3
Atom  12S    basis set group =>   1
Atom  13O    basis set group =>   2
Atom  14O    basis set group =>   2
Atom  15O    basis set group =>   2
Atom  16O    basis set group =>   2
Atom  17H    basis set group =>   3
Atom  18S    basis set group =>   1
Atom  19O    basis set group =>   2
Atom  20O    basis set group =>   2
Atom  21O    basis set group =>   2
Atom  22O    basis set group =>   2
Atom  23H    basis set group =>   3
Atom  24N    basis set group =>   4
Atom  25H    basis set group =>   3
Atom  26H    basis set group =>   3
Atom  27H    basis set group =>   3
Atom  28H    basis set group =>   3
Atom  29N    basis set group =>   4
Atom  30H    basis set group =>   3
Atom  31H    basis set group =>   3
Atom  32H    basis set group =>   3
Atom  33H    basis set group =>   3
Atom  34N    basis set group =>   4
Atom  35H    basis set group =>   3
Atom  36H    basis set group =>   3
Atom  37H    basis set group =>   3
Atom  38H    basis set group =>   3
Atom  39N    basis set group =>   4
Atom  40H    basis set group =>   3
Atom  41H    basis set group =>   3
Atom  42H    basis set group =>   3
Atom  43H    basis set group =>   3
------------------------------------------------------------------------------
                           ORCA GTO INTEGRAL CALCULATION
                           -- RI-GTO INTEGRALS CHOSEN --
------------------------------------------------------------------------------
------------------------------------------------------------------------------
                   ___                                                        
                  /   \      - P O W E R E D   B Y -                         
                 /     \                                                     
                 |  |  |   _    _      __       _____    __    __             
                 |  |  |  | |  | |    /  \     |  _  \  |  |  /  |          
                  \  \/   | |  | |   /    \    | | | |  |  | /  /          
                 / \  \   | |__| |  /  /\  \   | |_| |  |  |/  /          
                |  |  |   |  __  | /  /__\  \  |    /   |      \           
                |  |  |   | |  | | |   __   |  |    \   |  |\   \          
                \     /   | |  | | |  |  |  |  | |\  \  |  | \   \       
                 \___/    |_|  |_| |__|  |__|  |_| \__\ |__|  \__/        
                                                                              
                      - O R C A' S   B I G   F R I E N D -                    
                                      &                                       
                       - I N T E G R A L  F E E D E R -                       
                                                                              
 v1 FN, 2020, v2 2021                                                         
------------------------------------------------------------------------------


Reading SHARK input file 4sa4am-44_10_861.SHARKINP.tmp ... ok
----------------------
SHARK INTEGRAL PACKAGE
----------------------

Number of atoms                             ...     44
Number of basis functions                   ...    608
Number of shells                            ...    296
Maximum angular momentum                    ...      2
Integral batch strategy                     ... SHARK/LIBINT Hybrid
RI-J (if used) integral strategy            ... SPLIT-RIJ (Revised 2003 algorithm where possible)
Printlevel                                  ...      1
Contraction scheme used                     ... SEGMENTED contraction
Coulomb Range Separation                    ... NOT USED
Exchange Range Separation                   ... NOT USED
Finite Nucleus Model                        ... NOT USED
Auxiliary Coulomb fitting basis             ... AVAILABLE
   # of basis functions in Aux-J            ...    924
   # of shells in Aux-J                     ...    388
   Maximum angular momentum in Aux-J        ...      4
Auxiliary J/K fitting basis                 ... NOT available
Auxiliary Correlation fitting basis         ... NOT available
Auxiliary 'external' fitting basis          ... NOT available
Integral threshold                          ...     2.500000e-11
Primitive cut-off                           ...     2.500000e-12
Primitive pair pre-selection threshold      ...     2.500000e-12

Calculating pre-screening integrals         ... done (  0.2 sec) Dimension = 296
Organizing shell pair data                  ... done (  1.1 sec)
Shell pair information
Total number of shell pairs                 ...     43956
Shell pairs after pre-screening             ...     31072
Total number of primitive shell pairs       ...    164538
Primitive shell pairs kept                  ...     70120
          la=0 lb=0:  10595 shell pairs
          la=1 lb=0:   9668 shell pairs
          la=1 lb=1:   2244 shell pairs
          la=2 lb=0:   5431 shell pairs
          la=2 lb=1:   2460 shell pairs
          la=2 lb=2:    674 shell pairs

Calculating one electron integrals          ... done (  0.2 sec)
Calculating RI/J V-Matrix + Cholesky decomp.... done (  0.1 sec)
Calculating Nuclear repulsion               ... done (  0.0 sec) ENN=   3967.711793197195 Eh

SHARK setup successfully completed in   1.9 seconds

Maximum memory used throughout the entire GTOINT-calculation: 222.6 MB
-------------------------------------------------------------------------------
                                 ORCA SCF
-------------------------------------------------------------------------------

------------
SCF SETTINGS
------------
Hamiltonian:
 Density Functional     Method          .... DFT(GTOs)
 Exchange Functional    Exchange        .... B973C
 Correlation Functional Correlation     .... B973C
 Gradients option       PostSCFGGA      .... off
   Density functional embedding theory  .... OFF
 RI-approximation to the Coulomb term is turned on
   Number of AuxJ basis functions       .... 924


General Settings:
 Integral files         IntName         .... 4sa4am-44_10_861
 Hartree-Fock type      HFTyp           .... RHF
 Total Charge           Charge          ....    0
 Multiplicity           Mult            ....    1
 Number of Electrons    NEL             ....  240
 Basis Dimension        Dim             ....  608
 Nuclear Repulsion      ENuc            ....   3967.7117931972 Eh

Convergence Acceleration:
 DIIS                   CNVDIIS         .... on
   Start iteration      DIISMaxIt       ....    12
   Startup error        DIISStart       ....  0.200000
   # of expansion vecs  DIISMaxEq       ....     5
   Bias factor          DIISBfac        ....   1.050
   Max. coefficient     DIISMaxC        ....  10.000
 Trust-Rad. Augm. Hess. CNVTRAH         .... auto
   Auto Start mean grad. ratio tolernc. ....  1.125000
   Auto Start start iteration           ....    20
   Auto Start num. interpolation iter.  ....    10
   Max. Number of Micro iterations      ....    16
   Max. Number of Macro iterations      .... Maxiter - #DIIS iter
   Number of Davidson start vectors     ....     2
   Converg. threshold I  (grad. norm)   ....   1.000e-05
   Converg. threshold II (energy diff.) ....   1.000e-08
   Grad. Scal. Fac. for Micro threshold ....   0.100
   Minimum threshold for Micro iter.    ....   0.010
   NR start threshold (gradient norm)   ....   0.001
   Initial trust radius                 ....   0.400
   Minimum AH scaling param. (alpha)    ....   1.000
   Maximum AH scaling param. (alpha)    .... 1000.000
   Orbital update algorithm             .... Taylor
   White noise on init. David. guess    .... on
   Maximum white noise                  ....   0.010
   Quad. conv. algorithm                .... NR
   COSX micro iterations for RIJONX calc.... off
 SOSCF                  CNVSOSCF        .... on
   Start iteration      SOSCFMaxIt      ....   150
   Startup grad/error   SOSCFStart      ....  0.003300
 Level Shifting         CNVShift        .... on
   Level shift para.    LevelShift      ....    0.2500
   Turn off err/grad.   ShiftErr        ....    0.0010
 Zerner damping         CNVZerner       .... off
 Static damping         CNVDamp         .... on
   Fraction old density DampFac         ....    0.7000
   Max. Damping (<1)    DampMax         ....    0.9800
   Min. Damping (>=0)   DampMin         ....    0.0000
   Turn off err/grad.   DampErr         ....    0.1000
 Fernandez-Rico         CNVRico         .... off

SCF Procedure:
 Maximum # iterations   MaxIter         ....   125
 SCF integral mode      SCFMode         .... Direct
   Integral package                     .... SHARK and LIBINT hybrid scheme
 Reset frequency        DirectResetFreq ....    20
 Integral Threshold     Thresh          ....  2.500e-11 Eh
 Primitive CutOff       TCut            ....  2.500e-12 Eh

Convergence Tolerance:
 Convergence Check Mode ConvCheckMode   .... Total+1el-Energy
 Convergence forced     ConvForced      .... 0
 Energy Change          TolE            ....  1.000e-08 Eh
 1-El. energy change                    ....  1.000e-05 Eh
 Orbital Gradient       TolG            ....  1.000e-05
 Orbital Rotation angle TolX            ....  1.000e-05
 DIIS Error             TolErr          ....  5.000e-07


Diagonalization of the overlap matrix:
Smallest eigenvalue                        ... 1.640e-04
Time for diagonalization                   ...    0.121 sec
Threshold for overlap eigenvalues          ... 1.000e-08
Number of eigenvalues below threshold      ... 0
Time for construction of square roots      ...    0.095 sec
Total time needed                          ...    0.217 sec

--------------------------------
INITIAL GUESS: MINIMAL BASIS EHT
--------------------------------
The minimal basis has 156 functions
EHT matrix was diagonalized
Basis set overlap was calculated now projecting the orbitals
Using GuessMode=FMatrix for the initial guess
C*T matrix was formed
Effective Fockian was calculated
Effective Fockian was diagonalized
Initial density was built
                      ------------------
                      INITIAL GUESS DONE
                      ------------------
-------------------
DFT GRID GENERATION
-------------------

General Integration Accuracy     IntAcc      ... 4.388
Radial Grid Type                 RadialGrid  ... OptM3 with GC (2021)
Angular Grid (max. ang.)         AngularGrid ... 4 (Lebedev-302)
Angular grid pruning method      GridPruning ... 4 (adaptive)
Weight generation scheme         WeightScheme... Becke
Basis function cutoff            BFCut       ... 1.0000e-11
Integration weight cutoff        WCut        ... 1.0000e-14
Angular grids for H and He will be reduced by one unit
Partially contracted basis set               ... off
Rotationally invariant grid construction     ... off

Total number of grid points                  ...   216784
Total number of batches                      ...     3410
Average number of points per batch           ...       63
Average number of grid points per atom       ...     4927
Time for grid setup =    5.074 sec

--------------
SCF ITERATIONS
--------------
ITER       Energy         Delta-E        Max-DP      RMS-DP      [F,P]     Damp
               ***  Starting incremental Fock matrix formation  ***
  0  -3014.9956773125   0.000000000000 0.69639689  0.00578935  0.8468252 0.7000
  1  -3019.2596318873  -4.263954574799 0.16969773  0.00243013  0.5997037 0.7000
  2  -3021.2018720541  -1.942240166803 0.12816850  0.00150738  0.4110842 0.7000
  3  -3022.7337073883  -1.531835334188 0.10929410  0.00118462  0.2746272 0.7000
                               ***Turning on DIIS***
  4  -3023.8199054617  -1.086198073415 0.08056214  0.00088497  0.1823980 0.7000
  5  -3024.5741646363  -0.754259174620 0.05581910  0.00065088  0.1225411 0.7000
  6  -3025.1009038492  -0.526739212887 0.13212493  0.00156312  0.0857436 0.0000
  7  -3026.3327388848  -1.231835035644 0.00231089  0.00004796  0.0034003 0.0000
  8  -3026.3327026269   0.000036257909 0.00106360  0.00001801  0.0044224 0.0000
                      *** Initiating the SOSCF procedure ***
                           *** Shutting down DIIS ***
                      *** Re-Reading the Fockian *** 
                      *** Removing any level shift *** 
ITER      Energy       Delta-E        Grad      Rot      Max-DP    RMS-DP
  9  -3026.33285435  -0.0001517251  0.000118  0.000118  0.000564  0.000013
               *** Restarting incremental Fock matrix formation ***
 10  -3026.33286181  -0.0000074620  0.000076  0.000205  0.000325  0.000007
 11  -3026.33285905   0.0000027663  0.000168  0.000143  0.000226  0.000005
 12  -3026.33286267  -0.0000036223  0.000018  0.000031  0.000171  0.000002
 13  -3026.33286260   0.0000000653  0.000025  0.000019  0.000082  0.000001
 14  -3026.33286277  -0.0000001673  0.000008  0.000016  0.000057  0.000001
 15  -3026.33286278  -0.0000000057  0.000015  0.000011  0.000040  0.000000
                  ***Gradient check signals convergence***
              ***Rediagonalizing the Fockian in SOSCF/NRSCF***

               *****************************************************
               *                     SUCCESS                       *
               *           SCF CONVERGED AFTER  16 CYCLES          *
               *****************************************************


----------------
TOTAL SCF ENERGY
----------------

Total Energy       :        -3026.33286278 Eh          -82350.70383 eV

Components:
Nuclear Repulsion  :         3967.71179320 Eh          107966.92683 eV
Electronic Energy  :        -6994.04465598 Eh         -190317.63065 eV
One Electron Energy:       -12084.03589755 Eh         -328823.33383 eV
Two Electron Energy:         5089.99124157 Eh          138505.70318 eV

Virial components:
Potential Energy   :        -6045.83292295 Eh         -164515.47764 eV
Kinetic Energy     :         3019.50006016 Eh           82164.77381 eV
Virial Ratio       :            2.00226289


DFT components:
N(Alpha)           :      120.000055019650 electrons
N(Beta)            :      120.000055019650 electrons
N(Total)           :      240.000110039299 electrons
E(XC)              :     -275.136103734538 Eh       
DFET-embed. en.    :        0.000000000000 Eh       

---------------
SCF CONVERGENCE
---------------

  Last Energy change         ...   -6.8853e-09  Tolerance :   1.0000e-08
  Last MAX-Density change    ...    7.6029e-06  Tolerance :   1.0000e-07
  Last RMS-Density change    ...    8.5482e-08  Tolerance :   5.0000e-09
  Last Orbital Gradient      ...    1.0900e-06  Tolerance :   1.0000e-05
  Last Orbital Rotation      ...    1.8014e-06  Tolerance :   1.0000e-05

             **** THE GBW FILE WAS UPDATED (4sa4am-44_10_861.gbw) ****
             **** DENSITY 4sa4am-44_10_861.scfp WAS UPDATED ****
             **** ENERGY FILE WAS UPDATED (4sa4am-44_10_861.en.tmp) ****
             **** THE GBW FILE WAS UPDATED (4sa4am-44_10_861.gbw) ****
             **** DENSITY 4sa4am-44_10_861.scfp WAS UPDATED ****
----------------
ORBITAL ENERGIES
----------------

  NO   OCC          E(Eh)            E(eV) 
   0   2.0000     -88.269019     -2401.9221 
   1   2.0000     -88.269008     -2401.9218 
   2   2.0000     -88.267010     -2401.8674 
   3   2.0000     -88.267001     -2401.8672 
   4   2.0000     -18.789157      -511.2790 
   5   2.0000     -18.789145      -511.2786 
   6   2.0000     -18.773418      -510.8507 
   7   2.0000     -18.773416      -510.8506 
   8   2.0000     -18.740207      -509.9470 
   9   2.0000     -18.740200      -509.9468 
  10   2.0000     -18.739351      -509.9237 
  11   2.0000     -18.739337      -509.9233 
  12   2.0000     -18.736836      -509.8552 
  13   2.0000     -18.736798      -509.8542 
  14   2.0000     -18.734704      -509.7972 
  15   2.0000     -18.734695      -509.7970 
  16   2.0000     -18.734115      -509.7812 
  17   2.0000     -18.734077      -509.7801 
  18   2.0000     -18.732174      -509.7284 
  19   2.0000     -18.732171      -509.7283 
  20   2.0000     -14.080603      -383.1527 
  21   2.0000     -14.080557      -383.1514 
  22   2.0000     -14.079869      -383.1327 
  23   2.0000     -14.079845      -383.1321 
  24   2.0000      -7.929988      -215.7859 
  25   2.0000      -7.929977      -215.7856 
  26   2.0000      -7.927890      -215.7289 
  27   2.0000      -7.927881      -215.7286 
  28   2.0000      -5.960732      -162.1998 
  29   2.0000      -5.960720      -162.1994 
  30   2.0000      -5.958313      -162.1339 
  31   2.0000      -5.958303      -162.1337 
  32   2.0000      -5.957543      -162.1130 
  33   2.0000      -5.957532      -162.1127 
  34   2.0000      -5.957228      -162.1044 
  35   2.0000      -5.957217      -162.1041 
  36   2.0000      -5.955678      -162.0622 
  37   2.0000      -5.955669      -162.0620 
  38   2.0000      -5.955299      -162.0519 
  39   2.0000      -5.955290      -162.0517 
  40   2.0000      -1.091835       -29.7103 
  41   2.0000      -1.091105       -29.6905 
  42   2.0000      -1.088803       -29.6278 
  43   2.0000      -1.087845       -29.6018 
  44   2.0000      -0.964212       -26.2376 
  45   2.0000      -0.964028       -26.2325 
  46   2.0000      -0.955743       -26.0071 
  47   2.0000      -0.953875       -25.9563 
  48   2.0000      -0.935086       -25.4450 
  49   2.0000      -0.933537       -25.4028 
  50   2.0000      -0.933432       -25.4000 
  51   2.0000      -0.931912       -25.3586 
  52   2.0000      -0.931713       -25.3532 
  53   2.0000      -0.930356       -25.3163 
  54   2.0000      -0.928900       -25.2767 
  55   2.0000      -0.926474       -25.2106 
  56   2.0000      -0.908407       -24.7190 
  57   2.0000      -0.908291       -24.7158 
  58   2.0000      -0.906002       -24.6536 
  59   2.0000      -0.904212       -24.6049 
  60   2.0000      -0.597687       -16.2639 
  61   2.0000      -0.597338       -16.2544 
  62   2.0000      -0.586851       -15.9690 
  63   2.0000      -0.580583       -15.7985 
  64   2.0000      -0.536898       -14.6098 
  65   2.0000      -0.536382       -14.5957 
  66   2.0000      -0.527636       -14.3577 
  67   2.0000      -0.526163       -14.3176 
  68   2.0000      -0.523640       -14.2490 
  69   2.0000      -0.522855       -14.2276 
  70   2.0000      -0.521349       -14.1866 
  71   2.0000      -0.520158       -14.1542 
  72   2.0000      -0.516828       -14.0636 
  73   2.0000      -0.513849       -13.9825 
  74   2.0000      -0.513614       -13.9762 
  75   2.0000      -0.507309       -13.8046 
  76   2.0000      -0.493930       -13.4405 
  77   2.0000      -0.490620       -13.3505 
  78   2.0000      -0.481295       -13.0967 
  79   2.0000      -0.479424       -13.0458 
  80   2.0000      -0.445124       -12.1124 
  81   2.0000      -0.444430       -12.0936 
  82   2.0000      -0.442813       -12.0496 
  83   2.0000      -0.440281       -11.9806 
  84   2.0000      -0.439470       -11.9586 
  85   2.0000      -0.436015       -11.8646 
  86   2.0000      -0.432975       -11.7818 
  87   2.0000      -0.431722       -11.7478 
  88   2.0000      -0.394004       -10.7214 
  89   2.0000      -0.393476       -10.7070 
  90   2.0000      -0.385832       -10.4990 
  91   2.0000      -0.384451       -10.4614 
  92   2.0000      -0.335325        -9.1247 
  93   2.0000      -0.334170        -9.0932 
  94   2.0000      -0.330615        -8.9965 
  95   2.0000      -0.329436        -8.9644 
  96   2.0000      -0.324734        -8.8365 
  97   2.0000      -0.324544        -8.8313 
  98   2.0000      -0.320927        -8.7329 
  99   2.0000      -0.317930        -8.6513 
 100   2.0000      -0.317903        -8.6506 
 101   2.0000      -0.314026        -8.5451 
 102   2.0000      -0.313644        -8.5347 
 103   2.0000      -0.310271        -8.4429 
 104   2.0000      -0.310108        -8.4385 
 105   2.0000      -0.307971        -8.3803 
 106   2.0000      -0.307842        -8.3768 
 107   2.0000      -0.301247        -8.1973 
 108   2.0000      -0.276940        -7.5359 
 109   2.0000      -0.273859        -7.4521 
 110   2.0000      -0.269964        -7.3461 
 111   2.0000      -0.263393        -7.1673 
 112   2.0000      -0.255750        -6.9593 
 113   2.0000      -0.255042        -6.9400 
 114   2.0000      -0.252205        -6.8628 
 115   2.0000      -0.245613        -6.6835 
 116   2.0000      -0.244973        -6.6661 
 117   2.0000      -0.240923        -6.5558 
 118   2.0000      -0.239860        -6.5269 
 119   2.0000      -0.238178        -6.4812 
 120   0.0000      -0.023128        -0.6294 
 121   0.0000      -0.001856        -0.0505 
 122   0.0000       0.004666         0.1270 
 123   0.0000       0.010039         0.2732 
 124   0.0000       0.018783         0.5111 
 125   0.0000       0.031250         0.8504 
 126   0.0000       0.045102         1.2273 
 127   0.0000       0.047235         1.2853 
 128   0.0000       0.057017         1.5515 
 129   0.0000       0.059541         1.6202 
 130   0.0000       0.061149         1.6640 
 131   0.0000       0.068460         1.8629 
 132   0.0000       0.071631         1.9492 
 133   0.0000       0.079271         2.1571 
 134   0.0000       0.080340         2.1862 
 135   0.0000       0.086315         2.3487 
 136   0.0000       0.087362         2.3772 
 137   0.0000       0.091635         2.4935 
 138   0.0000       0.093825         2.5531 
 139   0.0000       0.096978         2.6389 
 140   0.0000       0.098396         2.6775 
 141   0.0000       0.104087         2.8324 
 142   0.0000       0.106722         2.9040 
 143   0.0000       0.112601         3.0640 
 144   0.0000       0.124455         3.3866 
 145   0.0000       0.127149         3.4599 
 146   0.0000       0.127457         3.4683 
 147   0.0000       0.133714         3.6385 
 148   0.0000       0.136031         3.7016 
 149   0.0000       0.143001         3.8912 
 150   0.0000       0.144768         3.9393 
 151   0.0000       0.149925         4.0797 
 152   0.0000       0.154673         4.2089 
 153   0.0000       0.158513         4.3133 
 154   0.0000       0.164333         4.4717 
 155   0.0000       0.168181         4.5764 
 156   0.0000       0.170095         4.6285 
 157   0.0000       0.173229         4.7138 
 158   0.0000       0.175859         4.7854 
 159   0.0000       0.177595         4.8326 
 160   0.0000       0.187615         5.1053 
 161   0.0000       0.188984         5.1425 
 162   0.0000       0.192375         5.2348 
 163   0.0000       0.196513         5.3474 
 164   0.0000       0.204314         5.5597 
 165   0.0000       0.206157         5.6098 
 166   0.0000       0.215363         5.8603 
 167   0.0000       0.218909         5.9568 
 168   0.0000       0.220512         6.0004 
 169   0.0000       0.223559         6.0834 
 170   0.0000       0.227471         6.1898 
 171   0.0000       0.236429         6.4336 
 172   0.0000       0.240179         6.5356 
 173   0.0000       0.243785         6.6337 
 174   0.0000       0.243885         6.6364 
 175   0.0000       0.249704         6.7948 
 176   0.0000       0.257499         7.0069 
 177   0.0000       0.260356         7.0846 
 178   0.0000       0.262123         7.1327 
 179   0.0000       0.262902         7.1539 
 180   0.0000       0.271598         7.3906 
 181   0.0000       0.282297         7.6817 
 182   0.0000       0.282463         7.6862 
 183   0.0000       0.287833         7.8323 
 184   0.0000       0.288598         7.8531 
 185   0.0000       0.296606         8.0711 
 186   0.0000       0.300768         8.1843 
 187   0.0000       0.302412         8.2291 
 188   0.0000       0.306085         8.3290 
 189   0.0000       0.319575         8.6961 
 190   0.0000       0.321551         8.7498 
 191   0.0000       0.324731         8.8364 
 192   0.0000       0.329589         8.9686 
 193   0.0000       0.336752         9.1635 
 194   0.0000       0.337797         9.1919 
 195   0.0000       0.341839         9.3019 
 196   0.0000       0.347870         9.4660 
 197   0.0000       0.352215         9.5843 
 198   0.0000       0.354273         9.6403 
 199   0.0000       0.357606         9.7309 
 200   0.0000       0.362116         9.8537 
 201   0.0000       0.370649        10.0859 
 202   0.0000       0.372211        10.1284 
 203   0.0000       0.373889        10.1740 
 204   0.0000       0.376500        10.2451 
 205   0.0000       0.376741        10.2517 
 206   0.0000       0.381623        10.3845 
 207   0.0000       0.383276        10.4295 
 208   0.0000       0.384201        10.4547 
 209   0.0000       0.390450        10.6247 
 210   0.0000       0.391178        10.6445 
 211   0.0000       0.397417        10.8143 
 212   0.0000       0.400620        10.9014 
 213   0.0000       0.404254        11.0003 
 214   0.0000       0.411090        11.1863 
 215   0.0000       0.414782        11.2868 
 216   0.0000       0.423271        11.5178 
 217   0.0000       0.424091        11.5401 
 218   0.0000       0.425344        11.5742 
 219   0.0000       0.426592        11.6082 
 220   0.0000       0.432287        11.7631 
 221   0.0000       0.440067        11.9748 
 222   0.0000       0.444787        12.1033 
 223   0.0000       0.445982        12.1358 
 224   0.0000       0.451549        12.2873 
 225   0.0000       0.452941        12.3252 
 226   0.0000       0.458123        12.4662 
 227   0.0000       0.464482        12.6392 
 228   0.0000       0.471445        12.8287 
 229   0.0000       0.478800        13.0288 
 230   0.0000       0.479846        13.0573 
 231   0.0000       0.484802        13.1921 
 232   0.0000       0.489458        13.3188 
 233   0.0000       0.495763        13.4904 
 234   0.0000       0.495884        13.4937 
 235   0.0000       0.501824        13.6553 
 236   0.0000       0.512626        13.9492 
 237   0.0000       0.517087        14.0707 
 238   0.0000       0.519327        14.1316 
 239   0.0000       0.524396        14.2695 
 240   0.0000       0.527369        14.3504 
 241   0.0000       0.527485        14.3536 
 242   0.0000       0.532912        14.5013 
 243   0.0000       0.536550        14.6003 
 244   0.0000       0.543596        14.7920 
 245   0.0000       0.545088        14.8326 
 246   0.0000       0.549935        14.9645 
 247   0.0000       0.557469        15.1695 
 248   0.0000       0.564175        15.3520 
 249   0.0000       0.565165        15.3789 
 250   0.0000       0.575942        15.6722 
 251   0.0000       0.576267        15.6810 
 252   0.0000       0.593204        16.1419 
 253   0.0000       0.593498        16.1499 
 254   0.0000       0.600090        16.3293 
 255   0.0000       0.603503        16.4222 
 256   0.0000       0.607341        16.5266 
 257   0.0000       0.623684        16.9713 
 258   0.0000       0.626710        17.0537 
 259   0.0000       0.631891        17.1946 
 260   0.0000       0.638278        17.3684 
 261   0.0000       0.644876        17.5480 
 262   0.0000       0.646773        17.5996 
 263   0.0000       0.652967        17.7681 
 264   0.0000       0.655001        17.8235 
 265   0.0000       0.665871        18.1193 
 266   0.0000       0.669560        18.2197 
 267   0.0000       0.675176        18.3725 
 268   0.0000       0.680391        18.5144 
 269   0.0000       0.684475        18.6255 
 270   0.0000       0.686708        18.6863 
 271   0.0000       0.690249        18.7826 
 272   0.0000       0.697215        18.9722 
 273   0.0000       0.698799        19.0153 
 274   0.0000       0.699986        19.0476 
 275   0.0000       0.712929        19.3998 
 276   0.0000       0.721941        19.6450 
 277   0.0000       0.728420        19.8213 
 278   0.0000       0.733735        19.9660 
 279   0.0000       0.735778        20.0215 
 280   0.0000       0.741430        20.1753 
 281   0.0000       0.746192        20.3049 
 282   0.0000       0.748216        20.3600 
 283   0.0000       0.752892        20.4872 
 284   0.0000       0.753460        20.5027 
 285   0.0000       0.758624        20.6432 
 286   0.0000       0.769390        20.9362 
 287   0.0000       0.772247        21.0139 
 288   0.0000       0.776908        21.1407 
 289   0.0000       0.777862        21.1667 
 290   0.0000       0.784375        21.3439 
 291   0.0000       0.790046        21.4983 
 292   0.0000       0.794407        21.6169 
 293   0.0000       0.798751        21.7351 
 294   0.0000       0.799880        21.7658 
 295   0.0000       0.809258        22.0210 
 296   0.0000       0.813499        22.1364 
 297   0.0000       0.814664        22.1681 
 298   0.0000       0.834045        22.6955 
 299   0.0000       0.834776        22.7154 
 300   0.0000       0.837806        22.7979 
 301   0.0000       0.838228        22.8093 
 302   0.0000       0.845167        22.9982 
 303   0.0000       0.852257        23.1911 
 304   0.0000       0.859677        23.3930 
 305   0.0000       0.860472        23.4146 
 306   0.0000       0.864040        23.5117 
 307   0.0000       0.870516        23.6879 
 308   0.0000       0.878056        23.8931 
 309   0.0000       0.878153        23.8958 
 310   0.0000       0.884716        24.0743 
 311   0.0000       0.891145        24.2493 
 312   0.0000       0.894640        24.3444 
 313   0.0000       0.898259        24.4429 
 314   0.0000       0.900609        24.5068 
 315   0.0000       0.904541        24.6138 
 316   0.0000       0.911856        24.8129 
 317   0.0000       0.915836        24.9212 
 318   0.0000       0.916862        24.9491 
 319   0.0000       0.922321        25.0976 
 320   0.0000       0.929176        25.2842 
 321   0.0000       0.937681        25.5156 
 322   0.0000       0.938877        25.5481 
 323   0.0000       0.948939        25.8219 
 324   0.0000       0.952051        25.9066 
 325   0.0000       0.953116        25.9356 
 326   0.0000       0.959681        26.1142 
 327   0.0000       0.971490        26.4356 
 328   0.0000       0.976749        26.5787 
 329   0.0000       0.982921        26.7466 
 330   0.0000       0.986269        26.8377 
 331   0.0000       0.995825        27.0978 
 332   0.0000       0.997463        27.1424 
 333   0.0000       0.999748        27.2045 
 334   0.0000       1.014971        27.6188 
 335   0.0000       1.016747        27.6671 
 336   0.0000       1.030813        28.0499 
 337   0.0000       1.031292        28.0629 
 338   0.0000       1.040898        28.3243 
 339   0.0000       1.041805        28.3489 
 340   0.0000       1.044484        28.4219 
 341   0.0000       1.046589        28.4791 
 342   0.0000       1.047806        28.5123 
 343   0.0000       1.059313        28.8254 
 344   0.0000       1.065328        28.9891 
 345   0.0000       1.067406        29.0456 
 346   0.0000       1.083902        29.4945 
 347   0.0000       1.084618        29.5139 
 348   0.0000       1.085298        29.5325 
 349   0.0000       1.089018        29.6337 
 350   0.0000       1.098442        29.8901 
 351   0.0000       1.105993        30.0956 
 352   0.0000       1.113236        30.2927 
 353   0.0000       1.117322        30.4039 
 354   0.0000       1.123502        30.5720 
 355   0.0000       1.133184        30.8355 
 356   0.0000       1.144643        31.1473 
 357   0.0000       1.150851        31.3163 
 358   0.0000       1.155460        31.4417 
 359   0.0000       1.166983        31.7552 
 360   0.0000       1.180200        32.1149 
 361   0.0000       1.191962        32.4349 
 362   0.0000       1.214618        33.0514 
 363   0.0000       1.234565        33.5942 
 364   0.0000       1.237833        33.6832 
 365   0.0000       1.280355        34.8402 
 366   0.0000       1.291525        35.1442 
 367   0.0000       1.296874        35.2897 
 368   0.0000       1.298468        35.3331 
 369   0.0000       1.355809        36.8934 
 370   0.0000       1.356659        36.9166 
 371   0.0000       1.375245        37.4223 
 372   0.0000       1.568519        42.6816 
 373   0.0000       1.577009        42.9126 
 374   0.0000       1.578578        42.9553 
 375   0.0000       1.587322        43.1932 
 376   0.0000       1.592695        43.3394 
 377   0.0000       1.598108        43.4867 
 378   0.0000       1.625393        44.2292 
 379   0.0000       1.677098        45.6362 
 380   0.0000       1.749990        47.6196 
 381   0.0000       1.752470        47.6871 
 382   0.0000       1.769764        48.1577 
 383   0.0000       1.774156        48.2772 
 384   0.0000       1.778700        48.4009 
 385   0.0000       1.787558        48.6419 
 386   0.0000       1.790434        48.7202 
 387   0.0000       1.792271        48.7702 
 388   0.0000       1.839286        50.0495 
 389   0.0000       1.845653        50.2228 
 390   0.0000       1.880596        51.1736 
 391   0.0000       1.882947        51.2376 
 392   0.0000       1.910911        51.9985 
 393   0.0000       1.913732        52.0753 
 394   0.0000       1.917906        52.1889 
 395   0.0000       1.920000        52.2459 
 396   0.0000       1.936039        52.6823 
 397   0.0000       1.939504        52.7766 
 398   0.0000       1.948520        53.0219 
 399   0.0000       1.951404        53.1004 
 400   0.0000       1.956025        53.2262 
 401   0.0000       1.956064        53.2272 
 402   0.0000       1.966944        53.5233 
 403   0.0000       1.971969        53.6600 
 404   0.0000       1.975339        53.7517 
 405   0.0000       1.979070        53.8532 
 406   0.0000       1.981072        53.9077 
 407   0.0000       1.991513        54.1918 
 408   0.0000       2.001704        54.4691 
 409   0.0000       2.005150        54.5629 
 410   0.0000       2.007022        54.6139 
 411   0.0000       2.014456        54.8161 
 412   0.0000       2.015892        54.8552 
 413   0.0000       2.021864        55.0177 
 414   0.0000       2.025439        55.1150 
 415   0.0000       2.027493        55.1709 
 416   0.0000       2.034019        55.3485 
 417   0.0000       2.034967        55.3743 
 418   0.0000       2.048176        55.7337 
 419   0.0000       2.049133        55.7598 
 420   0.0000       2.049162        55.7605 
 421   0.0000       2.049703        55.7752 
 422   0.0000       2.068360        56.2829 
 423   0.0000       2.068578        56.2889 
 424   0.0000       2.072577        56.3977 
 425   0.0000       2.077069        56.5199 
 426   0.0000       2.080302        56.6079 
 427   0.0000       2.087516        56.8042 
 428   0.0000       2.087989        56.8171 
 429   0.0000       2.098634        57.1067 
 430   0.0000       2.105694        57.2988 
 431   0.0000       2.112773        57.4915 
 432   0.0000       2.114288        57.5327 
 433   0.0000       2.124998        57.8241 
 434   0.0000       2.128827        57.9283 
 435   0.0000       2.132780        58.0359 
 436   0.0000       2.138113        58.1810 
 437   0.0000       2.147056        58.4244 
 438   0.0000       2.172890        59.1273 
 439   0.0000       2.173779        59.1515 
 440   0.0000       2.180850        59.3439 
 441   0.0000       2.182749        59.3956 
 442   0.0000       2.186441        59.4961 
 443   0.0000       2.191878        59.6440 
 444   0.0000       2.200804        59.8869 
 445   0.0000       2.204184        59.9789 
 446   0.0000       2.217378        60.3379 
 447   0.0000       2.225787        60.5667 
 448   0.0000       2.238113        60.9021 
 449   0.0000       2.246340        61.1260 
 450   0.0000       2.253967        61.3336 
 451   0.0000       2.259734        61.4905 
 452   0.0000       2.267076        61.6903 
 453   0.0000       2.274330        61.8877 
 454   0.0000       2.283573        62.1392 
 455   0.0000       2.286394        62.2159 
 456   0.0000       2.303355        62.6775 
 457   0.0000       2.311893        62.9098 
 458   0.0000       2.323353        63.2217 
 459   0.0000       2.334228        63.5176 
 460   0.0000       2.347863        63.8886 
 461   0.0000       2.351967        64.0003 
 462   0.0000       2.365842        64.3778 
 463   0.0000       2.376570        64.6698 
 464   0.0000       2.377162        64.6859 
 465   0.0000       2.381021        64.7909 
 466   0.0000       2.381566        64.8057 
 467   0.0000       2.409733        65.5722 
 468   0.0000       2.413088        65.6635 
 469   0.0000       2.417191        65.7751 
 470   0.0000       2.434434        66.2443 
 471   0.0000       2.444462        66.5172 
 472   0.0000       2.453772        66.7705 
 473   0.0000       2.459203        66.9183 
 474   0.0000       2.465369        67.0861 
 475   0.0000       2.469962        67.2111 
 476   0.0000       2.478227        67.4360 
 477   0.0000       2.479770        67.4780 
 478   0.0000       2.487283        67.6824 
 479   0.0000       2.508884        68.2702 
 480   0.0000       2.512111        68.3580 
 481   0.0000       2.514978        68.4360 
 482   0.0000       2.521495        68.6134 
 483   0.0000       2.529766        68.8384 
 484   0.0000       2.534238        68.9601 
 485   0.0000       2.539777        69.1108 
 486   0.0000       2.543854        69.2218 
 487   0.0000       2.550024        69.3897 
 488   0.0000       2.560083        69.6634 
 489   0.0000       2.566120        69.8277 
 490   0.0000       2.581965        70.2588 
 491   0.0000       2.588689        70.4418 
 492   0.0000       2.598305        70.7035 
 493   0.0000       2.601475        70.7897 
 494   0.0000       2.618257        71.2464 
 495   0.0000       2.633101        71.6503 
 496   0.0000       2.637049        71.7577 
 497   0.0000       2.654556        72.2342 
 498   0.0000       2.675785        72.8118 
 499   0.0000       2.684717        73.0549 
 500   0.0000       2.685149        73.0666 
 501   0.0000       2.690233        73.2049 
 502   0.0000       2.705330        73.6158 
 503   0.0000       2.736437        74.4622 
 504   0.0000       2.751394        74.8692 
 505   0.0000       2.759189        75.0814 
 506   0.0000       2.784818        75.7788 
 507   0.0000       2.788396        75.8761 
 508   0.0000       2.803264        76.2807 
 509   0.0000       2.807963        76.4086 
 510   0.0000       2.821283        76.7710 
 511   0.0000       2.824994        76.8720 
 512   0.0000       2.839034        77.2540 
 513   0.0000       2.840978        77.3069 
 514   0.0000       2.864973        77.9599 
 515   0.0000       2.866605        78.0043 
 516   0.0000       2.873018        78.1788 
 517   0.0000       2.879566        78.3570 
 518   0.0000       2.884119        78.4809 
 519   0.0000       2.885837        78.5276 
 520   0.0000       2.911112        79.2154 
 521   0.0000       2.912153        79.2437 
 522   0.0000       2.916453        79.3607 
 523   0.0000       2.918365        79.4128 
 524   0.0000       2.935636        79.8827 
 525   0.0000       2.938765        79.9679 
 526   0.0000       2.943753        80.1036 
 527   0.0000       2.948941        80.2448 
 528   0.0000       2.962524        80.6144 
 529   0.0000       2.967061        80.7378 
 530   0.0000       2.978439        81.0474 
 531   0.0000       2.987714        81.2998 
 532   0.0000       2.989359        81.3446 
 533   0.0000       3.003897        81.7402 
 534   0.0000       3.005642        81.7877 
 535   0.0000       3.018569        82.1394 
 536   0.0000       3.021852        82.2288 
 537   0.0000       3.025111        82.3175 
 538   0.0000       3.037677        82.6594 
 539   0.0000       3.038202        82.6737 
 540   0.0000       3.055095        83.1334 
 541   0.0000       3.073539        83.6352 
 542   0.0000       3.083348        83.9022 
 543   0.0000       3.089265        84.0632 
 544   0.0000       3.094646        84.2096 
 545   0.0000       3.102293        84.4177 
 546   0.0000       3.123935        85.0066 
 547   0.0000       3.125291        85.0435 
 548   0.0000       3.146287        85.6148 
 549   0.0000       3.149133        85.6923 
 550   0.0000       3.170966        86.2864 
 551   0.0000       3.177484        86.4637 
 552   0.0000       3.211007        87.3759 
 553   0.0000       3.216286        87.5196 
 554   0.0000       3.231401        87.9309 
 555   0.0000       3.257855        88.6508 
 556   0.0000       3.285753        89.4099 
 557   0.0000       3.302446        89.8641 
 558   0.0000       3.312962        90.1503 
 559   0.0000       3.341042        90.9144 
 560   0.0000       3.361990        91.4844 
 561   0.0000       3.367776        91.6418 
 562   0.0000       3.386889        92.1619 
 563   0.0000       3.415056        92.9284 
 564   0.0000       3.435399        93.4820 
 565   0.0000       3.449677        93.8705 
 566   0.0000       3.456615        94.0593 
 567   0.0000       3.480707        94.7148 
 568   0.0000       3.481498        94.7364 
 569   0.0000       3.500809        95.2619 
 570   0.0000       3.518776        95.7508 
 571   0.0000       3.523063        95.8674 
 572   0.0000       3.535427        96.2039 
 573   0.0000       3.558103        96.8209 
 574   0.0000       3.567660        97.0810 
 575   0.0000       3.571132        97.1754 
 576   0.0000       3.598369        97.9166 
 577   0.0000       3.602195        98.0207 
 578   0.0000       3.633634        98.8762 
 579   0.0000       3.633820        98.8813 
 580   0.0000       3.638745        99.0153 
 581   0.0000       3.652223        99.3820 
 582   0.0000       3.657314        99.5206 
 583   0.0000       3.675002       100.0019 
 584   0.0000      19.846337       540.0463 
 585   0.0000      19.919403       542.0345 
 586   0.0000      20.045613       545.4689 
 587   0.0000      20.104321       547.0664 
 588   0.0000      31.612986       860.2331 
 589   0.0000      31.638085       860.9161 
 590   0.0000      31.749519       863.9483 
 591   0.0000      31.772484       864.5733 
 592   0.0000      43.267863      1177.3784 
 593   0.0000      43.275886      1177.5967 
 594   0.0000      43.341607      1179.3851 
 595   0.0000      43.361478      1179.9258 
 596   0.0000      43.369890      1180.1547 
 597   0.0000      43.384284      1180.5464 
 598   0.0000      43.427651      1181.7265 
 599   0.0000      43.444649      1182.1890 
 600   0.0000      43.488851      1183.3918 
 601   0.0000      43.495700      1183.5782 
 602   0.0000      43.518219      1184.1909 
 603   0.0000      43.545267      1184.9270 
 604   0.0000      43.581933      1185.9247 
 605   0.0000      43.588482      1186.1029 
 606   0.0000      43.682282      1188.6553 
 607   0.0000      43.714608      1189.5350 

                    ********************************
                    * MULLIKEN POPULATION ANALYSIS *
                    ********************************

-----------------------
MULLIKEN ATOMIC CHARGES
-----------------------
   0 S :    1.153264
   1 O :   -0.571744
   2 O :   -0.599992
   3 O :   -0.623943
   4 O :   -0.618243
   5 H :    0.459124
   6 S :    1.153871
   7 O :   -0.571973
   8 O :   -0.600074
   9 O :   -0.624305
  10 O :   -0.618228
  11 H :    0.459108
  12 S :    1.147157
  13 O :   -0.609517
  14 O :   -0.651833
  15 O :   -0.576774
  16 O :   -0.576814
  17 H :    0.443860
  18 S :    1.146520
  19 O :   -0.609380
  20 O :   -0.651655
  21 O :   -0.576595
  22 O :   -0.576733
  23 H :    0.443797
  24 N :   -0.757652
  25 H :    0.409593
  26 H :    0.422862
  27 H :    0.403607
  28 H :    0.366110
  29 N :   -0.757617
  30 H :    0.422855
  31 H :    0.403546
  32 H :    0.409563
  33 H :    0.366093
  34 N :   -0.760815
  35 H :    0.377174
  36 H :    0.380361
  37 H :    0.380961
  38 H :    0.403395
  39 N :   -0.760498
  40 H :    0.403351
  41 H :    0.376952
  42 H :    0.380960
  43 H :    0.380302
Sum of atomic charges:    0.0000000

--------------------------------
MULLIKEN REDUCED ORBITAL CHARGES
--------------------------------
  0 S s       :     5.076280  s :     5.076280
      pz      :     2.971808  p :     8.888496
      px      :     2.959004
      py      :     2.957684
      dz2     :     0.203573  d :     0.881960
      dxz     :     0.200691
      dyz     :     0.152414
      dx2y2   :     0.131839
      dxy     :     0.193443
  1 O s       :     3.863713  s :     3.863713
      pz      :     1.335638  p :     4.668136
      px      :     1.631583
      py      :     1.700916
      dz2     :     0.010431  d :     0.039895
      dxz     :     0.011277
      dyz     :     0.004075
      dx2y2   :     0.007306
      dxy     :     0.006806
  2 O s       :     3.839312  s :     3.839312
      pz      :     1.446958  p :     4.724825
      px      :     1.555706
      py      :     1.722161
      dz2     :     0.007701  d :     0.035855
      dxz     :     0.015858
      dyz     :     0.000939
      dx2y2   :     0.004333
      dxy     :     0.007023
  3 O s       :     3.858967  s :     3.858967
      pz      :     1.751719  p :     4.718517
      px      :     1.554481
      py      :     1.412317
      dz2     :     0.007660  d :     0.046460
      dxz     :     0.005994
      dyz     :     0.008698
      dx2y2   :     0.006644
      dxy     :     0.017464
  4 O s       :     3.819192  s :     3.819192
      pz      :     1.879860  p :     4.739508
      px      :     1.596025
      py      :     1.263624
      dz2     :     0.012397  d :     0.059543
      dxz     :     0.007773
      dyz     :     0.003719
      dx2y2   :     0.011043
      dxy     :     0.024611
  5 H s       :     0.540876  s :     0.540876
  6 S s       :     5.076158  s :     5.076158
      pz      :     2.980053  p :     8.887975
      px      :     2.958866
      py      :     2.949055
      dz2     :     0.179467  d :     0.881996
      dxz     :     0.198400
      dyz     :     0.174744
      dx2y2   :     0.133539
      dxy     :     0.195846
  7 O s       :     3.863771  s :     3.863771
      pz      :     1.405819  p :     4.668322
      px      :     1.628126
      py      :     1.634377
      dz2     :     0.006134  d :     0.039879
      dxz     :     0.013195
      dyz     :     0.008626
      dx2y2   :     0.006922
      dxy     :     0.005002
  8 O s       :     3.839257  s :     3.839257
      pz      :     1.520322  p :     4.724922
      px      :     1.559758
      py      :     1.644843
      dz2     :     0.005499  d :     0.035895
      dxz     :     0.011301
      dyz     :     0.003972
      dx2y2   :     0.003590
      dxy     :     0.011533
  9 O s       :     3.859140  s :     3.859140
      pz      :     1.685083  p :     4.718733
      px      :     1.553741
      py      :     1.479909
      dz2     :     0.008279  d :     0.046432
      dxz     :     0.007795
      dyz     :     0.008685
      dx2y2   :     0.005991
      dxy     :     0.015682
 10 O s       :     3.819157  s :     3.819157
      pz      :     1.783932  p :     4.739550
      px      :     1.596124
      py      :     1.359494
      dz2     :     0.009167  d :     0.059521
      dxz     :     0.010640
      dyz     :     0.007818
      dx2y2   :     0.010112
      dxy     :     0.021783
 11 H s       :     0.540892  s :     0.540892
 12 S s       :     5.077197  s :     5.077197
      pz      :     2.960888  p :     8.891634
      px      :     2.956397
      py      :     2.974349
      dz2     :     0.193455  d :     0.884012
      dxz     :     0.202274
      dyz     :     0.153919
      dx2y2   :     0.189356
      dxy     :     0.145008
 13 O s       :     3.869915  s :     3.869915
      pz      :     1.271896  p :     4.705031
      px      :     1.707125
      py      :     1.726010
      dz2     :     0.010571  d :     0.034570
      dxz     :     0.012001
      dyz     :     0.001740
      dx2y2   :     0.005437
      dxy     :     0.004821
 14 O s       :     3.851103  s :     3.851103
      pz      :     1.555724  p :     4.745943
      px      :     1.552710
      py      :     1.637509
      dz2     :     0.010393  d :     0.054787
      dxz     :     0.006530
      dyz     :     0.007803
      dx2y2   :     0.011826
      dxy     :     0.018235
 15 O s       :     3.856950  s :     3.856950
      pz      :     1.726846  p :     4.679877
      px      :     1.301449
      py      :     1.651582
      dz2     :     0.006001  d :     0.039947
      dxz     :     0.007112
      dyz     :     0.004215
      dx2y2   :     0.011500
      dxy     :     0.011118
 16 O s       :     3.809852  s :     3.809852
      pz      :     1.811951  p :     4.721214
      px      :     1.549077
      py      :     1.360186
      dz2     :     0.008255  d :     0.045748
      dxz     :     0.004415
      dyz     :     0.007316
      dx2y2   :     0.014558
      dxy     :     0.011204
 17 H s       :     0.556140  s :     0.556140
 18 S s       :     5.077659  s :     5.077659
      pz      :     2.979869  p :     8.891808
      px      :     2.957447
      py      :     2.954491
      dz2     :     0.191761  d :     0.884013
      dxz     :     0.211810
      dyz     :     0.146694
      dx2y2   :     0.198396
      dxy     :     0.135353
 19 O s       :     3.869728  s :     3.869728
      pz      :     1.351416  p :     4.705059
      px      :     1.709289
      py      :     1.644353
      dz2     :     0.009629  d :     0.034593
      dxz     :     0.010898
      dyz     :     0.005693
      dx2y2   :     0.002624
      dxy     :     0.005748
 20 O s       :     3.850952  s :     3.850952
      pz      :     1.459007  p :     4.745768
      px      :     1.548353
      py      :     1.738408
      dz2     :     0.013632  d :     0.054935
      dxz     :     0.011950
      dyz     :     0.002197
      dx2y2   :     0.014456
      dxy     :     0.012700
 21 O s       :     3.856858  s :     3.856858
      pz      :     1.707590  p :     4.679783
      px      :     1.302924
      py      :     1.669269
      dz2     :     0.004954  d :     0.039954
      dxz     :     0.008858
      dyz     :     0.003653
      dx2y2   :     0.012972
      dxy     :     0.009517
 22 O s       :     3.809900  s :     3.809900
      pz      :     1.859193  p :     4.721128
      px      :     1.548735
      py      :     1.313200
      dz2     :     0.009021  d :     0.045705
      dxz     :     0.005656
      dyz     :     0.005038
      dx2y2   :     0.015983
      dxy     :     0.010007
 23 H s       :     0.556203  s :     0.556203
 24 N s       :     3.483126  s :     3.483126
      pz      :     1.408972  p :     4.241512
      px      :     1.421201
      py      :     1.411339
      dz2     :     0.004011  d :     0.033014
      dxz     :     0.006528
      dyz     :     0.009267
      dx2y2   :     0.010103
      dxy     :     0.003106
 25 H s       :     0.590407  s :     0.590407
 26 H s       :     0.577138  s :     0.577138
 27 H s       :     0.596393  s :     0.596393
 28 H s       :     0.633890  s :     0.633890
 29 N s       :     3.483036  s :     3.483036
      pz      :     1.415868  p :     4.241567
      px      :     1.421365
      py      :     1.404334
      dz2     :     0.005380  d :     0.033013
      dxz     :     0.007094
      dyz     :     0.006973
      dx2y2   :     0.010945
      dxy     :     0.002622
 30 H s       :     0.577145  s :     0.577145
 31 H s       :     0.596454  s :     0.596454
 32 H s       :     0.590437  s :     0.590437
 33 H s       :     0.633907  s :     0.633907
 34 N s       :     3.516173  s :     3.516173
      pz      :     1.350865  p :     4.215094
      px      :     1.421215
      py      :     1.443014
      dz2     :     0.008245  d :     0.029549
      dxz     :     0.006332
      dyz     :     0.002780
      dx2y2   :     0.006682
      dxy     :     0.005509
 35 H s       :     0.622826  s :     0.622826
 36 H s       :     0.619639  s :     0.619639
 37 H s       :     0.619039  s :     0.619039
 38 H s       :     0.596605  s :     0.596605
 39 N s       :     3.516007  s :     3.516007
      pz      :     1.372928  p :     4.214942
      px      :     1.421334
      py      :     1.420679
      dz2     :     0.003082  d :     0.029549
      dxz     :     0.008280
      dyz     :     0.007558
      dx2y2   :     0.007179
      dxy     :     0.003449
 40 H s       :     0.596649  s :     0.596649
 41 H s       :     0.623048  s :     0.623048
 42 H s       :     0.619040  s :     0.619040
 43 H s       :     0.619698  s :     0.619698


                     *******************************
                     * LOEWDIN POPULATION ANALYSIS *
                     *******************************

----------------------
LOEWDIN ATOMIC CHARGES
----------------------
   0 S :    1.866361
   1 O :   -0.804439
   2 O :   -0.807666
   3 O :   -0.827267
   4 O :   -0.676941
   5 H :    0.368274
   6 S :    1.866354
   7 O :   -0.804421
   8 O :   -0.807703
   9 O :   -0.827292
  10 O :   -0.676944
  11 H :    0.368275
  12 S :    1.878479
  13 O :   -0.841662
  14 O :   -0.935597
  15 O :   -0.784919
  16 O :   -0.689540
  17 H :    0.378624
  18 S :    1.878485
  19 O :   -0.841655
  20 O :   -0.935639
  21 O :   -0.784959
  22 O :   -0.689527
  23 H :    0.378628
  24 N :   -0.356517
  25 H :    0.324457
  26 H :    0.330256
  27 H :    0.320538
  28 H :    0.336095
  29 N :   -0.356566
  30 H :    0.330285
  31 H :    0.320509
  32 H :    0.324494
  33 H :    0.336117
  34 N :   -0.395687
  35 H :    0.341603
  36 H :    0.298246
  37 H :    0.342336
  38 H :    0.335001
  39 N :   -0.395657
  40 H :    0.335019
  41 H :    0.341600
  42 H :    0.342337
  43 H :    0.298224

-------------------------------
LOEWDIN REDUCED ORBITAL CHARGES
-------------------------------
  0 S s       :     4.619638  s :     4.619638
      pz      :     2.848832  p :     8.484959
      px      :     2.829556
      py      :     2.806571
      dz2     :     0.240348  d :     1.029042
      dxz     :     0.241538
      dyz     :     0.162303
      dx2y2   :     0.145236
      dxy     :     0.239617
  1 O s       :     3.663580  s :     3.663580
      pz      :     1.491216  p :     4.807306
      px      :     1.642304
      py      :     1.673786
      dz2     :     0.089124  d :     0.333553
      dxz     :     0.075239
      dyz     :     0.061937
      dx2y2   :     0.051763
      dxy     :     0.055491
  2 O s       :     3.649147  s :     3.649147
      pz      :     1.545619  p :     4.805679
      px      :     1.573778
      py      :     1.686282
      dz2     :     0.088041  d :     0.352840
      dxz     :     0.078650
      dyz     :     0.055300
      dx2y2   :     0.066124
      dxy     :     0.064725
  3 O s       :     3.659333  s :     3.659333
      pz      :     1.712092  p :     4.814017
      px      :     1.599578
      py      :     1.502347
      dz2     :     0.047086  d :     0.353917
      dxz     :     0.064481
      dyz     :     0.076854
      dx2y2   :     0.074108
      dxy     :     0.091388
  4 O s       :     3.615172  s :     3.615172
      pz      :     1.850302  p :     4.785490
      px      :     1.607851
      py      :     1.327337
      dz2     :     0.039004  d :     0.276280
      dxz     :     0.049276
      dyz     :     0.037584
      dx2y2   :     0.069156
      dxy     :     0.081261
  5 H s       :     0.631726  s :     0.631726
  6 S s       :     4.619625  s :     4.619625
[...]
      dxz     :     0.072272
      dyz     :     0.070699
      dx2y2   :     0.068241
      dxy     :     0.083696
 10 O s       :     3.615122  s :     3.615122
      pz      :     1.768000  p :     4.785531
      px      :     1.607878
      py      :     1.409653
      dz2     :     0.033218  d :     0.276291
      dxz     :     0.054203
      dyz     :     0.052824
      dx2y2   :     0.059556
      dxy     :     0.076491
 11 H s       :     0.631725  s :     0.631725
 12 S s       :     4.611726  s :     4.611726
      pz      :     2.840287  p :     8.476953
      px      :     2.836126
      py      :     2.800540
      dz2     :     0.232243  d :     1.032843
      dxz     :     0.230495
      dyz     :     0.174095
      dx2y2   :     0.228902
      dxy     :     0.167107
 13 O s       :     3.662956  s :     3.662956
      pz      :     1.449330  p :     4.820382
      px      :     1.678823
      py      :     1.692229
      dz2     :     0.098042  d :     0.358324
      dxz     :     0.079255
      dyz     :     0.073609
      dx2y2   :     0.062505
      dxy     :     0.044913
 14 O s       :     3.641931  s :     3.641931
      pz      :     1.608878  p :     4.808721
      px      :     1.579214
      py      :     1.620629
      dz2     :     0.090915  d :     0.484945
      dxz     :     0.107956
      dyz     :     0.073906
      dx2y2   :     0.109864
      dxy     :     0.102304
 15 O s       :     3.659329  s :     3.659329
      pz      :     1.699641  p :     4.799518
      px      :     1.465338
      py      :     1.634539
      dz2     :     0.045049  d :     0.326072
      dxz     :     0.072569
      dyz     :     0.050722
      dx2y2   :     0.086836
      dxy     :     0.070896
 16 O s       :     3.603479  s :     3.603479
      pz      :     1.792880  p :     4.779799
      px      :     1.544101
      py      :     1.442818
      dz2     :     0.053036  d :     0.306262
      dxz     :     0.023364
      dyz     :     0.061572
      dx2y2   :     0.091421
      dxy     :     0.076869
 17 H s       :     0.621376  s :     0.621376
 18 S s       :     4.611719  s :     4.611719
      pz      :     2.841339  p :     8.476945
      px      :     2.836087
      py      :     2.799519
      dz2     :     0.225139  d :     1.032851
      dxz     :     0.247380
      dyz     :     0.166704
      dx2y2   :     0.243549
      dxy     :     0.150080
 19 O s       :     3.662958  s :     3.662958
      pz      :     1.495286  p :     4.820384
      px      :     1.680131
      py      :     1.644967
      dz2     :     0.095669  d :     0.358312
      dxz     :     0.077174
      dyz     :     0.063047
      dx2y2   :     0.075548
      dxy     :     0.046874
 20 O s       :     3.641912  s :     3.641912
      pz      :     1.554271  p :     4.808664
      px      :     1.577016
      py      :     1.677377
      dz2     :     0.094651  d :     0.485063
      dxz     :     0.128815
      dyz     :     0.077372
      dx2y2   :     0.102420
      dxy     :     0.081806
 21 O s       :     3.659313  s :     3.659313
      pz      :     1.686009  p :     4.799479
      px      :     1.466181
      py      :     1.647289
      dz2     :     0.056574  d :     0.326167
      dxz     :     0.077703
      dyz     :     0.039879
      dx2y2   :     0.086525
      dxy     :     0.065486
 22 O s       :     3.603505  s :     3.603505
      pz      :     1.827001  p :     4.779731
      px      :     1.543855
      py      :     1.408876
      dz2     :     0.042367  d :     0.306291
      dxz     :     0.024707
      dyz     :     0.067195
      dx2y2   :     0.096489
      dxy     :     0.075532
 23 H s       :     0.621372  s :     0.621372
 24 N s       :     3.232488  s :     3.232488
      pz      :     1.374317  p :     4.080364
      px      :     1.354960
      py      :     1.351087
      dz2     :     0.005356  d :     0.043665
      dxz     :     0.008298
      dyz     :     0.012314
      dx2y2   :     0.013649
      dxy     :     0.004048
 25 H s       :     0.675543  s :     0.675543
 26 H s       :     0.669744  s :     0.669744
 27 H s       :     0.679462  s :     0.679462
 28 H s       :     0.663905  s :     0.663905
 29 N s       :     3.232558  s :     3.232558
      pz      :     1.381517  p :     4.080344
      px      :     1.355232
      py      :     1.343595
      dz2     :     0.007138  d :     0.043664
      dxz     :     0.009049
      dyz     :     0.009299
      dx2y2   :     0.014780
      dxy     :     0.003398
 30 H s       :     0.669715  s :     0.669715
 31 H s       :     0.679491  s :     0.679491
 32 H s       :     0.675506  s :     0.675506
 33 H s       :     0.663883  s :     0.663883
 34 N s       :     3.241530  s :     3.241530
      pz      :     1.320411  p :     4.115526
      px      :     1.387276
      py      :     1.407838
      dz2     :     0.011132  d :     0.038631
      dxz     :     0.007944
      dyz     :     0.003599
      dx2y2   :     0.008803
      dxy     :     0.007152
 35 H s       :     0.658397  s :     0.658397
 36 H s       :     0.701754  s :     0.701754
 37 H s       :     0.657664  s :     0.657664
 38 H s       :     0.664999  s :     0.664999
 39 N s       :     3.241537  s :     3.241537
      pz      :     1.341075  p :     4.115488
      px      :     1.387344
      py      :     1.387068
      dz2     :     0.004156  d :     0.038632
      dxz     :     0.010387
      dyz     :     0.010179
      dx2y2   :     0.009342
      dxy     :     0.004568
 40 H s       :     0.664981  s :     0.664981
 41 H s       :     0.658400  s :     0.658400
 42 H s       :     0.657663  s :     0.657663
 43 H s       :     0.701776  s :     0.701776


                      *****************************
                      * MAYER POPULATION ANALYSIS *
                      *****************************

  NA   - Mulliken gross atomic population
  ZA   - Total nuclear charge
  QA   - Mulliken gross atomic charge
  VA   - Mayer's total valence
  BVA  - Mayer's bonded valence
  FA   - Mayer's free valence

  ATOM       NA         ZA         QA         VA         BVA        FA
  0 S     14.8467    16.0000     1.1533     5.7346     5.7346    -0.0000
  1 O      8.5717     8.0000    -0.5717     1.8397     1.8397    -0.0000
  2 O      8.6000     8.0000    -0.6000     1.7424     1.7424     0.0000
  3 O      8.6239     8.0000    -0.6239     1.8496     1.8496     0.0000
  4 O      8.6182     8.0000    -0.6182     1.9381     1.9381     0.0000
  5 H      0.5409     1.0000     0.4591     0.7751     0.7751     0.0000
  6 S     14.8461    16.0000     1.1539     5.7340     5.7340     0.0000
  7 O      8.5720     8.0000    -0.5720     1.8400     1.8400    -0.0000
  8 O      8.6001     8.0000    -0.6001     1.7425     1.7425    -0.0000
  9 O      8.6243     8.0000    -0.6243     1.8491     1.8491    -0.0000
 10 O      8.6182     8.0000    -0.6182     1.9380     1.9380     0.0000
 11 H      0.5409     1.0000     0.4591     0.7751     0.7751     0.0000
 12 S     14.8528    16.0000     1.1472     5.6706     5.6706     0.0000
 13 O      8.6095     8.0000    -0.6095     1.7742     1.7742    -0.0000
 14 O      8.6518     8.0000    -0.6518     1.7161     1.7161    -0.0000
 15 O      8.5768     8.0000    -0.5768     1.9157     1.9157    -0.0000
 16 O      8.5768     8.0000    -0.5768     1.8866     1.8866    -0.0000
 17 H      0.5561     1.0000     0.4439     0.8281     0.8281    -0.0000
 18 S     14.8535    16.0000     1.1465     5.6710     5.6710    -0.0000
 19 O      8.6094     8.0000    -0.6094     1.7744     1.7744     0.0000
 20 O      8.6517     8.0000    -0.6517     1.7161     1.7161    -0.0000
 21 O      8.5766     8.0000    -0.5766     1.9158     1.9158     0.0000
 22 O      8.5767     8.0000    -0.5767     1.8865     1.8865     0.0000
 23 H      0.5562     1.0000     0.4438     0.8281     0.8281     0.0000
 24 N      7.7577     7.0000    -0.7577     3.2260     3.2260     0.0000
 25 H      0.5904     1.0000     0.4096     0.8451     0.8451    -0.0000
 26 H      0.5771     1.0000     0.4229     0.8345     0.8345     0.0000
 27 H      0.5964     1.0000     0.4036     0.8440     0.8440    -0.0000
 28 H      0.6339     1.0000     0.3661     0.8307     0.8307     0.0000
 29 N      7.7576     7.0000    -0.7576     3.2260     3.2260     0.0000
 30 H      0.5771     1.0000     0.4229     0.8345     0.8345     0.0000
 31 H      0.5965     1.0000     0.4035     0.8440     0.8440    -0.0000
 32 H      0.5904     1.0000     0.4096     0.8452     0.8452     0.0000
 33 H      0.6339     1.0000     0.3661     0.8309     0.8309     0.0000
 34 N      7.7608     7.0000    -0.7608     2.9654     2.9654    -0.0000
 35 H      0.6228     1.0000     0.3772     0.8756     0.8756    -0.0000
 36 H      0.6196     1.0000     0.3804     0.8370     0.8370     0.0000
 37 H      0.6190     1.0000     0.3810     0.8890     0.8890    -0.0000
 38 H      0.5966     1.0000     0.4034     0.8601     0.8601     0.0000
 39 N      7.7605     7.0000    -0.7605     2.9651     2.9651     0.0000
 40 H      0.5966     1.0000     0.4034     0.8601     0.8601    -0.0000
 41 H      0.6230     1.0000     0.3770     0.8760     0.8760    -0.0000
 42 H      0.6190     1.0000     0.3810     0.8889     0.8889     0.0000
 43 H      0.6197     1.0000     0.3803     0.8370     0.8370    -0.0000

  Mayer bond orders larger than 0.100000
B(  0-S ,  1-O ) :   1.5279 B(  0-S ,  2-O ) :   1.4895 B(  0-S ,  3-O ) :   1.6035 
B(  0-S ,  4-O ) :   1.0695 B(  1-O , 37-H ) :   0.1979 B(  2-O , 23-H ) :   0.1178 
B(  4-O ,  5-H ) :   0.7291 B(  6-S ,  7-O ) :   1.5280 B(  6-S ,  8-O ) :   1.4898 
B(  6-S ,  9-O ) :   1.6028 B(  6-S , 10-O ) :   1.0694 B(  7-O , 42-H ) :   0.1979 
B(  8-O , 17-H ) :   0.1176 B( 10-O , 11-H ) :   0.7291 B( 12-S , 13-O ) :   1.5420 
B( 12-S , 14-O ) :   1.3121 B( 12-S , 15-O ) :   1.6909 B( 12-S , 16-O ) :   1.1200 
B( 14-O , 35-H ) :   0.1688 B( 16-O , 17-H ) :   0.6497 B( 18-S , 19-O ) :   1.5421 
B( 18-S , 20-O ) :   1.3121 B( 18-S , 21-O ) :   1.6909 B( 18-S , 22-O ) :   1.1201 
B( 20-O , 41-H ) :   0.1690 B( 22-O , 23-H ) :   0.6497 B( 24-N , 25-H ) :   0.7720 
B( 24-N , 26-H ) :   0.7291 B( 24-N , 27-H ) :   0.7950 B( 24-N , 28-H ) :   0.8903 
B( 29-N , 30-H ) :   0.7290 B( 29-N , 31-H ) :   0.7951 B( 29-N , 32-H ) :   0.7719 
B( 29-N , 33-H ) :   0.8903 B( 34-N , 35-H ) :   0.7063 B( 34-N , 36-H ) :   0.8370 
B( 34-N , 37-H ) :   0.6714 B( 34-N , 38-H ) :   0.7814 B( 39-N , 40-H ) :   0.7813 
B( 39-N , 41-H ) :   0.7064 B( 39-N , 42-H ) :   0.6714 B( 39-N , 43-H ) :   0.8370 


-------
TIMINGS
-------

Total SCF time: 0 days 0 hours 3 min 13 sec 

Total time                  ....     193.703 sec
Sum of individual times     ....     191.575 sec  ( 98.9%)

Fock matrix formation       ....     180.672 sec  ( 93.3%)
  Split-RI-J                ....      52.072 sec  ( 28.8% of F)
  XC integration            ....     128.528 sec  ( 71.1% of F)
    Basis function eval.    ....      26.053 sec  ( 20.3% of XC)
    Density eval.           ....      60.726 sec  ( 47.2% of XC)
    XC-Functional eval.     ....       4.100 sec  (  3.2% of XC)
    XC-Potential eval.      ....      34.101 sec  ( 26.5% of XC)
Diagonalization             ....       2.581 sec  (  1.3%)
Density matrix formation    ....       0.159 sec  (  0.1%)
Population analysis         ....       0.202 sec  (  0.1%)
Initial guess               ....       0.316 sec  (  0.2%)
Orbital Transformation      ....       0.000 sec  (  0.0%)
Orbital Orthonormalization  ....       0.000 sec  (  0.0%)
DIIS solution               ....       1.062 sec  (  0.5%)
SOSCF solution              ....       1.510 sec  (  0.8%)
Grid generation             ....       5.074 sec  (  2.6%)

Maximum memory used throughout the entire SCF-calculation: 298.2 MB


-------------------------------------------------------------------------------
                          DFT DISPERSION CORRECTION                            
                                                                               
                              DFTD3 V3.1  Rev 1                                
                          USING Becke-Johnson damping                          
-------------------------------------------------------------------------------
The B97-3c composite method is recognized
Using three-body term ABC
Active option DFTDOPT                   ...         4   

molecular C6(AA) [au] = 22563.488519 


            DFT-D V3
 parameters
 s6 scaling factor         :     1.0000 
 a1 scaling factor         :     0.3700 
 s8 scaling factor         :     1.5000 
 a2 scaling factor         :     4.1000 
 Damping factor alpha9(ATM):    16.0000 
 ad hoc parameters k1-k3   :    16.0000     1.3333    -4.0000 

 Edisp/kcal,au: -88.262589432086  -0.140655374405 
 E6   /kcal   : -46.391175961 
 E8   /kcal   : -42.663696614 
 E6(ABC)      :   0.792283143 
 % E8         :  48.337236522 
 % E6(ABC)    :  -0.897643212 

-------------------------   ----------------
Dispersion correction           -0.140655374
-------------------------   ----------------

------------------   -----------------
SRB correction            -0.142461629
------------------   -----------------

-------------------------   --------------------
FINAL SINGLE POINT ENERGY     -3026.615979787793
-------------------------   --------------------

------------------------------------------------------------------------------
                         ORCA SCF GRADIENT CALCULATION
------------------------------------------------------------------------------

Gradient of the Kohn-Sham DFT energy:
Kohn-Sham wavefunction type      ... RKS
Hartree-Fock exchange scaling    ...    0.000
Number of operators              ...    1
Number of atoms                  ...   44
Basis set dimensions             ...  608
Integral neglect threshold       ... 2.5e-11
Integral primitive cutoff        ... 2.5e-12
SHARK Integral package           ... ON

Nuc. rep. gradient       (SHARK) ... done (  0.0 sec)
HCore & Overlap gradient (SHARK) ... done (  4.5 sec)
RI-J gradient            (SHARK) ... done ( 11.9 sec)
Exchange-correlation gradient    ... done
Dispersion correction            ... done
SRB correction                   ... done

------------------
CARTESIAN GRADIENT
------------------

   1   S   :   -0.004211932    0.009924970   -0.004575159
   2   O   :    0.019831234    0.004675713   -0.038124843
   3   O   :    0.025778255    0.012824028    0.037269137
   4   O   :   -0.032541537   -0.026172013    0.005996091
   5   O   :   -0.018731667    0.011435646    0.000404377
   6   H   :    0.003025221    0.003265788   -0.000104876
   7   S   :    0.004020601   -0.007696712   -0.007762149
   8   O   :   -0.020169636    0.008711668   -0.037300828
   9   O   :   -0.025553645   -0.024925256    0.030739133
  10   O   :    0.032636359    0.022448769    0.014586485
  11   O   :    0.018764891   -0.010793054   -0.003766346
  12   H   :   -0.003037582   -0.003016660   -0.001215707
  13   S   :    0.001003142   -0.016410851   -0.000557871
  14   O   :    0.009564002   -0.002267473    0.039047647
  15   O   :    0.024174699    0.011327448   -0.021724383
  16   O   :   -0.043369243    0.007426141   -0.007340452
  17   O   :   -0.006505119   -0.021544969   -0.005607097
  18   H   :    0.003546932    0.000680679   -0.000862985
  19   S   :   -0.000877687    0.015446167    0.005180948
  20   O   :   -0.009339244   -0.011309552    0.037466283
  21   O   :   -0.024315363   -0.003213234   -0.023737475
  22   O   :    0.043285601   -0.004301032   -0.009704154
  23   O   :    0.006438100    0.022210679    0.002152053
  24   H   :   -0.003536118   -0.000357998   -0.000997898
  25   N   :   -0.007509186   -0.002276787    0.008467363
  26   H   :    0.000826429    0.001832573   -0.000183189
  27   H   :    0.001850617   -0.002559818   -0.000000356
  28   H   :   -0.000111259    0.000364014   -0.001226889
  29   H   :    0.001299147   -0.000844965    0.000249583
  30   N   :    0.007620122   -0.000728831    0.008950229
  31   H   :   -0.001858599    0.002306330    0.000709756
  32   H   :    0.000158010    0.000214136   -0.001236036
  33   H   :   -0.000842817   -0.001604305   -0.000813440
  34   H   :   -0.001177810    0.000577034    0.000653397
  35   N   :   -0.000525900    0.000328734   -0.004038011
  36   H   :    0.001691571   -0.004113022   -0.001147773
  37   H   :   -0.000910368   -0.001185710   -0.002497854
  38   H   :   -0.000725568    0.003157742   -0.004320614
  39   H   :    0.000910447   -0.000429521   -0.001256314
  40   N   :    0.000628295    0.001104636   -0.003833839
  41   H   :   -0.000955456    0.000891497   -0.001169610
  42   H   :   -0.001832056    0.004121078    0.000237717
  43   H   :    0.000718256   -0.001494081   -0.005076300
  44   H   :    0.000865862    0.001970375   -0.001927750

Difference to translation invariance:
           :   -0.0000000000    0.0000000000   -0.0000000000

Difference to rotation invariance:
           :    0.0006226295    0.0009371346    0.0014252391

Norm of the cartesian gradient     ...    0.1571244548
RMS gradient                       ...    0.0136759284
MAX gradient                       ...    0.0433692429

-------
TIMINGS
-------

Total SCF gradient time            ...       88.877 sec

One electron gradient       ....       4.530 sec  (  5.1%)
RI-J Coulomb gradient       ....      11.868 sec  ( 13.4%)
XC gradient                 ....      72.010 sec  ( 81.0%)

Maximum memory used throughout the entire SCFGRAD-calculation: 271.6 MB

                            ***************************************
                            *     ORCA property calculations      *
                            ***************************************

                                    ---------------------
                                    Active property flags
                                    ---------------------
   (+) Dipole Moment


------------------------------------------------------------------------------
                       ORCA ELECTRIC PROPERTIES CALCULATION
------------------------------------------------------------------------------

Dipole Moment Calculation                       ... on
Quadrupole Moment Calculation                   ... off
Polarizability Calculation                      ... off
GBWName                                         ... 4sa4am-44_10_861.gbw
Electron density                                ... 4sa4am-44_10_861.scfp
The origin for moment calculation is the CENTER OF MASS  = (-0.000499,  0.015530 -0.087249)

-------------
DIPOLE MOMENT
-------------
                                X             Y             Z
Electronic contribution:     -0.00566       0.16681      -0.93850
Nuclear contribution   :      0.01079      -0.33991       1.90966
                        -----------------------------------------
Total Dipole Moment    :      0.00512      -0.17310       0.97116
                        -----------------------------------------
Magnitude (a.u.)       :      0.98648
Magnitude (Debye)      :      2.50743



--------------------
Rotational spectrum 
--------------------
 
Rotational constants in cm-1:     0.010172     0.003835     0.003440 
Rotational constants in MHz :   304.952158   114.972432   103.117146 

 Dipole components along the rotational axes: 
x,y,z [a.u.] :     0.000288     0.000894    -0.986480 
x,y,z [Debye]:     0.000733     0.002273    -2.507432 

 

Timings for individual modules:

Sum of individual times         ...      284.699 sec (=   4.745 min)
GTO integral calculation        ...        2.001 sec (=   0.033 min)   0.7 %
SCF iterations                  ...      193.764 sec (=   3.229 min)  68.1 %
SCF Gradient evaluation         ...       88.934 sec (=   1.482 min)  31.2 %
                             ****ORCA TERMINATED NORMALLY****
TOTAL RUN TIME: 0 days 0 hours 4 minutes 45 seconds 162 msec
