
                                 *****************
                                 * O   R   C   A *
                                 *****************

                                            #,                                       
                                            ###                                      
                                            ####                                     
                                            #####                                    
                                            ######                                   
                                           ########,                                 
                                     ,,################,,,,,                         
                               ,,#################################,,                 
                          ,,##########################################,,             
                       ,#########################################, ''#####,          
                    ,#############################################,,   '####,        
                  ,##################################################,,,,####,       
                ,###########''''           ''''###############################       
              ,#####''   ,,,,##########,,,,          '''####'''          '####       
            ,##' ,,,,###########################,,,                        '##       
           ' ,,###''''                  '''############,,,                           
         ,,##''                                '''############,,,,        ,,,,,,###''
      ,#''                                            '''#######################'''  
     '                                                          ''''####''''         
             ,#######,   #######,   ,#######,      ##                                
            ,#'     '#,  ##    ##  ,#'     '#,    #''#        ######   ,####,        
            ##       ##  ##   ,#'  ##            #'  '#       #        #'  '#        
            ##       ##  #######   ##           ,######,      #####,   #    #        
            '#,     ,#'  ##    ##  '#,     ,#' ,#      #,         ##   #,  ,#        
             '#######'   ##     ##  '#######'  #'      '#     #####' # '####'        



                  #######################################################
                  #                        -***-                        #
                  #          Department of theory and spectroscopy      #
                  #    Directorship and core code : Frank Neese         #
                  #        Max Planck Institute fuer Kohlenforschung    #
                  #                Kaiser Wilhelm Platz 1               #
                  #                 D-45470 Muelheim/Ruhr               #
                  #                      Germany                        #
                  #                                                     #
                  #                  All rights reserved                #
                  #                        -***-                        #
                  #######################################################


                         Program Version 5.0.3 -  RELEASE  -


 With contributions from (in alphabetic order):
   Daniel Aravena         : Magnetic Suceptibility
   Michael Atanasov       : Ab Initio Ligand Field Theory (pilot matlab implementation)
   Alexander A. Auer      : GIAO ZORA, VPT2 properties, NMR spectrum
   Ute Becker             : Parallelization
   Giovanni Bistoni       : ED, misc. LED, open-shell LED, HFLD
   Martin Brehm           : Molecular dynamics
   Dmytro Bykov           : SCF Hessian
   Vijay G. Chilkuri      : MRCI spin determinant printing, contributions to CSF-ICE
   Dipayan Datta          : RHF DLPNO-CCSD density
   Achintya Kumar Dutta   : EOM-CC, STEOM-CC
   Dmitry Ganyushin       : Spin-Orbit,Spin-Spin,Magnetic field MRCI
   Miquel Garcia          : C-PCM and meta-GGA Hessian, CC/C-PCM, Gaussian charge scheme
   Yang Guo               : DLPNO-NEVPT2, F12-NEVPT2, CIM, IAO-localization
   Andreas Hansen         : Spin unrestricted coupled pair/coupled cluster methods
   Benjamin Helmich-Paris : MC-RPA, TRAH-SCF, COSX integrals
   Lee Huntington         : MR-EOM, pCC
   Robert Izsak           : Overlap fitted RIJCOSX, COSX-SCS-MP3, EOM
   Marcus Kettner         : VPT2
   Christian Kollmar      : KDIIS, OOCD, Brueckner-CCSD(T), CCSD density, CASPT2, CASPT2-K
   Simone Kossmann        : Meta GGA functionals, TD-DFT gradient, OOMP2, MP2 Hessian
   Martin Krupicka        : Initial AUTO-CI
   Lucas Lang             : DCDCAS
   Marvin Lechner         : AUTO-CI (C++ implementation), FIC-MRCC
   Dagmar Lenk            : GEPOL surface, SMD
   Dimitrios Liakos       : Extrapolation schemes; Compound Job, initial MDCI parallelization
   Dimitrios Manganas     : Further ROCIS development; embedding schemes
   Dimitrios Pantazis     : SARC Basis sets
   Anastasios Papadopoulos: AUTO-CI, single reference methods and gradients
   Taras Petrenko         : DFT Hessian,TD-DFT gradient, ASA, ECA, R-Raman, ABS, FL, XAS/XES, NRVS
   Peter Pinski           : DLPNO-MP2, DLPNO-MP2 Gradient
   Christoph Reimann      : Effective Core Potentials
   Marius Retegan         : Local ZFS, SOC
   Christoph Riplinger    : Optimizer, TS searches, QM/MM, DLPNO-CCSD(T), (RO)-DLPNO pert. Triples
   Tobias Risthaus        : Range-separated hybrids, TD-DFT gradient, RPA, STAB
   Michael Roemelt        : Original ROCIS implementation
   Masaaki Saitow         : Open-shell DLPNO-CCSD energy and density
   Barbara Sandhoefer     : DKH picture change effects
   Avijit Sen             : IP-ROCIS
   Kantharuban Sivalingam : CASSCF convergence, NEVPT2, FIC-MRCI
   Bernardo de Souza      : ESD, SOC TD-DFT
   Georgi Stoychev        : AutoAux, RI-MP2 NMR, DLPNO-MP2 response
   Willem Van den Heuvel  : Paramagnetic NMR
   Boris Wezisla          : Elementary symmetry handling
   Frank Wennmohs         : Technical directorship


 We gratefully acknowledge several colleagues who have allowed us to
 interface, adapt or use parts of their codes:
   Stefan Grimme, W. Hujo, H. Kruse, P. Pracht,  : VdW corrections, initial TS optimization,
                  C. Bannwarth, S. Ehlert          DFT functionals, gCP, sTDA/sTD-DF
   Ed Valeev, F. Pavosevic, A. Kumar             : LibInt (2-el integral package), F12 methods
   Garnet Chan, S. Sharma, J. Yang, R. Olivares  : DMRG
   Ulf Ekstrom                                   : XCFun DFT Library
   Mihaly Kallay                                 : mrcc  (arbitrary order and MRCC methods)
   Jiri Pittner, Ondrej Demel                    : Mk-CCSD
   Frank Weinhold                                : gennbo (NPA and NBO analysis)
   Christopher J. Cramer and Donald G. Truhlar   : smd solvation model
   Lars Goerigk                                  : TD-DFT with DH, B97 family of functionals
   V. Asgeirsson, H. Jonsson                     : NEB implementation
   FAccTs GmbH                                   : IRC, NEB, NEB-TS, DLPNO-Multilevel, CI-OPT
                                                   MM, QMMM, 2- and 3-layer-ONIOM, Crystal-QMMM,
                                                   LR-CPCM, SF, NACMEs, symmetry and pop. for TD-DFT,
                                                   nearIR, NL-DFT gradient (VV10), updates on ESD,
                                                   ML-optimized integration grids
   S Lehtola, MJT Oliveira, MAL Marques          : LibXC Library
   Liviu Ungur et al                             : ANISO software


 Your calculation uses the libint2 library for the computation of 2-el integrals
 For citations please refer to: http://libint.valeyev.net

 Your ORCA version has been built with support for libXC version: 5.1.0
 For citations please refer to: https://tddft.org/programs/libxc/

 This ORCA versions uses:
   CBLAS   interface :  Fast vector & matrix operations
   LAPACKE interface :  Fast linear algebra routines
   SCALAPACK package :  Parallel linear algebra routines
   Shared memory     :  Shared parallel matrices
   BLAS/LAPACK       :  OpenBLAS 0.3.15  USE64BITINT DYNAMIC_ARCH NO_AFFINITY Prescott SINGLE_THREADED
        Core in use  :  Prescott
   Copyright (c) 2011-2014, The OpenBLAS Project




***************************************
The coordinates will be read from file: 4sa4am-44_1_996.xyz
***************************************


Your calculation utilizes the atom-pairwise dispersion correction
with the Becke-Johnson damping scheme (D3BJ)
Cite in your paper:
S.Grimme, S.Ehrlich, L.Goerigk, J Comput Chem, (2011), 32, 1456–1465 
S.Grimme, J.Antony, S.Ehrlich and H.Krieg, J.Chem.Phys., 132, (2010), 154104 
   

Your calculation employs the composite approach B97-3c by Grimme and coworkers.
For the correct reference, please check the publication list of the Grimme group:
http://www.thch.uni-bonn.de/tc/index.php?section=publikationen&subsection=grimme#2017
   

XCFun DFT library Copyright 2009-2010 Ulf Ekstrom and contributors.
See http://admol.org/xcfun for more information.
This is free software; see the source code for copying conditions.
There is ABSOLUTELY NO WARRANTY; not even for MERCHANTABILITY or FITNESS FOR A PARTICULAR PURPOSE.
For details see the documentation.
Scientific users of this library should cite U. Ekstrom, L. Visscher, R. Bast, A. J. Thorvaldsen and K. Ruud;
J.Chem.Theor.Comp. 2010, DOI: 10.1021/ct100117s
XCFun Version 0.99 

================================================================================

----- Orbital basis set information -----
Your calculation utilizes the basis: def2-mTZVP
----- AuxJ basis set information -----
Your calculation utilizes the basis: def2-mTZVP/J
================================================================================
                                        WARNINGS
                       Please study these warnings very carefully!
================================================================================


INFO   : the flag for use of the SHARK integral package has been found!

================================================================================
                                       INPUT FILE
================================================================================
NAME = 4sa4am-44_1_996.inp
|  1> ! B97-3c ENGRAD
|  2> %pal nprocs 1
|  3>     end
|  4> %Maxcore 3000.00
|  5> * xyzfile 0 1 4sa4am-44_1_996.xyz
|  6>   
|  7> 
|  8>                          ****END OF INPUT****
================================================================================

                     *******************************
                     * Energy+Gradient Calculation *
                     *******************************

---------------------------------
CARTESIAN COORDINATES (ANGSTROEM)
---------------------------------
  S     -2.594003   -0.727214   -1.470251
  O     -3.505550   -1.398282   -0.580822
  O     -3.115076    0.424626   -2.161080
  O     -1.283775   -0.479994   -0.870761
  O     -2.199506   -1.825134   -2.640818
  H     -3.029935   -2.114950   -3.035306
  S      1.149637   -2.422198    1.360911
  O      2.168876   -1.814792    0.517085
  O      0.819277   -1.604520    2.512370
  O     -0.007697   -2.877782    0.610687
  O      1.781818   -3.794117    1.933674
  H      2.495567   -3.578098    2.543098
  S      2.201710    1.349347   -1.653518
  O      1.689421    2.394826   -2.505064
  O      3.323842    1.703259   -0.824681
  O      1.143930    0.654391   -0.921753
  O      2.723183    0.150335   -2.656862
  H      3.503602    0.487905   -3.110588
  S     -0.952738    2.125819    1.984927
  O      0.059682    2.803284    1.177146
  O     -2.093281    1.715359    1.179603
  O     -0.419743    1.080618    2.823237
  O     -1.500750    3.222917    3.034486
  H     -1.869395    3.968214    2.548354
  N      2.068158    0.810842    1.568462
  H      2.995756    1.206262    1.621858
  H      1.696300    0.521578    2.468412
  H      1.429441    1.503790    1.167522
  H      2.084331   -0.007537    0.949994
  N     -0.985259    2.185704   -1.371620
  H     -0.300243    2.363623   -2.101113
  H     -0.688100    2.653484   -0.513545
  H     -1.926798    2.439964   -1.637464
  H     -0.987222    1.173557   -1.161044
  N      0.711012   -1.836435   -1.860248
  H      0.866479   -0.876380   -1.502498
  H      1.580982   -2.174447   -2.243593
  H      0.417864   -2.390454   -1.048734
  H     -0.044142   -1.813326   -2.534723
  N     -1.891910   -1.047996    1.694643
  H     -1.330659   -0.949363    2.536268
  H     -2.783357   -1.493001    1.857453
  H     -2.044637   -0.114346    1.297242
  H     -1.357091   -1.599337    1.018653

----------------------------
CARTESIAN COORDINATES (A.U.)
----------------------------
  NO LB      ZA    FRAG     MASS         X           Y           Z
   0 S    16.0000    0    32.060   -4.901956   -1.374236   -2.778371
   1 O     8.0000    0    15.999   -6.624530   -2.642370   -1.097594
   2 O     8.0000    0    15.999   -5.886641    0.802426   -4.083850
   3 O     8.0000    0    15.999   -2.425983   -0.907057   -1.645500
   4 O     8.0000    0    15.999   -4.156465   -3.449004   -4.990422
   5 H     1.0000    0     1.008   -5.725746   -3.996676   -5.735897
   6 S    16.0000    0    32.060    2.172499   -4.577290    2.571750
   7 O     8.0000    0    15.999    4.098581   -3.429459    0.977150
   8 O     8.0000    0    15.999    1.548209   -3.032103    4.747692
   9 O     8.0000    0    15.999   -0.014545   -5.438221    1.154032
  10 O     8.0000    0    15.999    3.367148   -7.169841    3.654114
  11 H     1.0000    0     1.008    4.715937   -6.761625    4.805758
  12 S    16.0000    0    32.060    4.160630    2.549896   -3.124696
  13 O     8.0000    0    15.999    3.192543    4.525565   -4.733886
  14 O     8.0000    0    15.999    6.281151    3.218693   -1.558421
  15 O     8.0000    0    15.999    2.161715    1.236619   -1.741860
  16 O     8.0000    0    15.999    5.146071    0.284092   -5.020742
  17 H     1.0000    0     1.008    6.620848    0.922006   -5.878160
  18 S    16.0000    0    32.060   -1.800415    4.017217    3.750968
  19 O     8.0000    0    15.999    0.112783    5.297440    2.224483
  20 O     8.0000    0    15.999   -3.955728    3.241559    2.229127
  21 O     8.0000    0    15.999   -0.793200    2.042071    5.335145
  22 O     8.0000    0    15.999   -2.836006    6.090430    5.734347
  23 H     1.0000    0     1.008   -3.532644    7.498838    4.815691
  24 N     7.0000    0    14.007    3.908252    1.532270    2.963964
  25 H     1.0000    0     1.008    5.661158    2.279505    3.064867
  26 H     1.0000    0     1.008    3.205542    0.985640    4.664623
  27 H     1.0000    0     1.008    2.701253    2.841751    2.206297
  28 H     1.0000    0     1.008    3.938814   -0.014243    1.795228
  29 N     7.0000    0    14.007   -1.861869    4.130381   -2.591987
  30 H     1.0000    0     1.008   -0.567378    4.466600   -3.970529
  31 H     1.0000    0     1.008   -1.300321    5.014359   -0.970459
  32 H     1.0000    0     1.008   -3.641121    4.610864   -3.094359
  33 H     1.0000    0     1.008   -1.865580    2.217701   -2.194055
  34 N     7.0000    0    14.007    1.343617   -3.470359   -3.515360
  35 H     1.0000    0     1.008    1.637408   -1.656118   -2.839309
  36 H     1.0000    0     1.008    2.987623   -4.109110   -4.239776
  37 H     1.0000    0     1.008    0.789649   -4.517303   -1.981820
  38 H     1.0000    0     1.008   -0.083417   -3.426690   -4.789931
  39 N     7.0000    0    14.007   -3.575192   -1.980426    3.202412
  40 H     1.0000    0     1.008   -2.514581   -1.794036    4.792851
  41 H     1.0000    0     1.008   -5.259782   -2.821364    3.510077
  42 H     1.0000    0     1.008   -3.863805   -0.216082    2.451433
  43 H     1.0000    0     1.008   -2.564530   -3.022310    1.924974

--------------------------------
INTERNAL COORDINATES (ANGSTROEM)
--------------------------------
 S      0   0   0     0.000000000000     0.00000000     0.00000000
 O      1   0   0     1.439559977661     0.00000000     0.00000000
 O      1   2   0     1.440658811587   116.10084760     0.00000000
 O      1   2   3     1.461917922196   113.14004762   132.55680272
 O      1   2   3     1.652659267635   106.20530633   242.31688709
 H      5   1   2     0.963963013032   106.49633264    56.21174683
 S      4   1   2     3.830667228230   136.26050827    41.25150118
 O      7   4   1     1.455964661950    84.00377980   141.18611577
 O      7   4   1     1.450376705812    91.83265436   253.72601249
 O      7   4   1     1.452519990554    49.60719801    14.07877972
 O      7   4   1     1.615509423123   152.33749164    26.43734334
 H     11   7   4     0.963067416093   108.89800316   177.62024316
 S      8   7   4     3.837234449200   132.67488867    23.33499446
 O     13   8   7     1.442427729631   158.21342987   328.84592913
 O     13   8   7     1.439237596442    83.32018030   122.60484091
 O     13   8   7     1.461965440400    47.05449847   352.12173176
 O     13   8   7     1.648108723016    75.35579172   231.56374246
 H     17  13   8     0.963780451546   106.73814197   226.74805717
 S     16  13   8     3.874262260196   125.91260236   118.59686344
 O     19  16  13     1.461665134240    52.16137830     3.70951604
 O     19  16  13     1.455287735147    84.36679085   126.70236573
 O     19  16  13     1.441976175083    87.75588722   241.10295108
 O     19  16  13     1.614160301384   158.38770945     4.71298113
 H     23  19  16     0.963167530689   109.12858986    58.40693758
 N     16  13   8     2.660797346928   100.90475552    60.94651402
 H     25  16  13     1.009774830511   113.05383325   353.90186133
 H     25  16  13     1.015806602552   133.25526952   176.80250720
 H     25  16  13     1.024152700741    57.09626246    92.53186365
 H     25  16  13     1.025918644509    52.72627779   256.63540119
 N     16  13   8     2.660967400239   102.75383829   178.57200834
 H     30  16  13     1.016396173574    71.50622910    21.58970448
 H     30  16  13     1.021477511440    83.61221796   269.00347722
 H     30  16  13     1.010850000361   159.14800625   128.56238981
 H     30  16  13     1.033821957247    53.39298958   153.44838500
 N      4   1   2     2.607333856787   116.23698059   111.52865712
 H     35   4   1     1.036272709835    60.11823838   147.09381217
 H     35   4   1     1.008986593060   167.99341521   133.26877762
 H     35   4   1     1.025391033275    76.23250947   264.58904528
 H     35   4   1     1.012771902730    70.75597981    20.77501189
 N      4   1   2     2.696990246664    98.76360930   347.87392173
 H     40   4   1     1.016397237830   129.99312420   186.05816938
 H     40   4   1     1.009561062261   116.44496298    11.33671978
 H     40   4   1     1.026136940428    58.23430722   273.96692708
 H     40   4   1     1.023216662051    50.74323168   105.36920319

---------------------------
INTERNAL COORDINATES (A.U.)
---------------------------
 S      0   0   0     0.000000000000     0.00000000     0.00000000
 O      1   0   0     2.720374111133     0.00000000     0.00000000
 O      1   2   0     2.722450606320   116.10084760     0.00000000
 O      1   2   3     2.762624503221   113.14004762   132.55680272
 O      1   2   3     3.123073408516   106.20530633   242.31688709
 H      5   1   2     1.821626097861   106.49633264    56.21174683
 S      4   1   2     7.238911971541   136.26050827    41.25150118
 O      7   4   1     2.751374471753    84.00377980   141.18611577
 O      7   4   1     2.740814765004    91.83265436   253.72601249
 O      7   4   1     2.744864986192    49.60719801    14.07877972
 O      7   4   1     3.052870376471   152.33749164    26.43734334
 H     11   7   4     1.819933664920   108.89800316   177.62024316
 S      8   7   4     7.251322220637   132.67488867    23.33499446
 O     13   8   7     2.725793376977   158.21342987   328.84592913
 O     13   8   7     2.719764898918    83.32018030   122.60484091
 O     13   8   7     2.762714299613    47.05449847   352.12173176
 O     13   8   7     3.114474125428    75.35579172   231.56374246
 H     17  13   8     1.821281106649   106.73814197   226.74805717
 S     16  13   8     7.321294642757   125.91260236   118.59686344
 O     19  16  13     2.762146803214    52.16137830     3.70951604
 O     19  16  13     2.750095265482    84.36679085   126.70236573
 O     19  16  13     2.724940062546    87.75588722   241.10295108
 O     19  16  13     3.050320905863   158.38770945     4.71298113
 H     23  19  16     1.820122854087   109.12858986    58.40693758
 N     16  13   8     5.028178283558   100.90475552    60.94651402
 H     25  16  13     1.908197886592   113.05383325   353.90186133
 H     25  16  13     1.919596283853   133.25526952   176.80250720
 H     25  16  13     1.935368123717    57.09626246    92.53186365
 H     25  16  13     1.938705273806    52.72627779   256.63540119
 N     16  13   8     5.028499637744   102.75383829   178.57200834
 H     30  16  13     1.920710411620    71.50622910    21.58970448
 H     30  16  13     1.930312748580    83.61221796   269.00347722
 H     30  16  13     1.910229663156   159.14800625   128.56238981
 H     30  16  13     1.953640370430    53.39298958   153.44838500
 N      4   1   2     4.927146929029   116.23698059   111.52865712
 H     35   4   1     1.958271621645    60.11823838   147.09381217
 H     35   4   1     1.906708333682   167.99341521   133.26877762
 H     35   4   1     1.937708233067    76.23250947   264.58904528
 H     35   4   1     1.913861532290    70.75597981    20.77501189
 N      4   1   2     5.096572952051    98.76360930   347.87392173
 H     40   4   1     1.920712422772   129.99312420   186.05816938
 H     40   4   1     1.907793923144   116.44496298    11.33671978
 H     40   4   1     1.939117793308    58.23430722   273.96692708
 H     40   4   1     1.933599266941    50.74323168   105.36920319

---------------------
BASIS SET INFORMATION
---------------------
There are 4 groups of distinct atoms

 Group   1 Type S   : 14s9p1d contracted to 5s4p1d pattern {73211/6111/1}
 Group   2 Type O   : 11s6p2d contracted to 5s3p2d pattern {62111/411/11}
 Group   3 Type H   : 5s contracted to 3s pattern {311}
 Group   4 Type N   : 11s6p1d contracted to 5s3p1d pattern {62111/411/1}

Atom   0S    basis set group =>   1
Atom   1O    basis set group =>   2
Atom   2O    basis set group =>   2
Atom   3O    basis set group =>   2
Atom   4O    basis set group =>   2
Atom   5H    basis set group =>   3
Atom   6S    basis set group =>   1
Atom   7O    basis set group =>   2
Atom   8O    basis set group =>   2
Atom   9O    basis set group =>   2
Atom  10O    basis set group =>   2
Atom  11H    basis set group =>   3
Atom  12S    basis set group =>   1
Atom  13O    basis set group =>   2
Atom  14O    basis set group =>   2
Atom  15O    basis set group =>   2
Atom  16O    basis set group =>   2
Atom  17H    basis set group =>   3
Atom  18S    basis set group =>   1
Atom  19O    basis set group =>   2
Atom  20O    basis set group =>   2
Atom  21O    basis set group =>   2
Atom  22O    basis set group =>   2
Atom  23H    basis set group =>   3
Atom  24N    basis set group =>   4
Atom  25H    basis set group =>   3
Atom  26H    basis set group =>   3
Atom  27H    basis set group =>   3
Atom  28H    basis set group =>   3
Atom  29N    basis set group =>   4
Atom  30H    basis set group =>   3
Atom  31H    basis set group =>   3
Atom  32H    basis set group =>   3
Atom  33H    basis set group =>   3
Atom  34N    basis set group =>   4
Atom  35H    basis set group =>   3
Atom  36H    basis set group =>   3
Atom  37H    basis set group =>   3
Atom  38H    basis set group =>   3
Atom  39N    basis set group =>   4
Atom  40H    basis set group =>   3
Atom  41H    basis set group =>   3
Atom  42H    basis set group =>   3
Atom  43H    basis set group =>   3
---------------------------------
AUXILIARY/J BASIS SET INFORMATION
---------------------------------
There are 4 groups of distinct atoms

 Group   1 Type S   : 14s5p5d2f1g contracted to 8s4p3d1f1g pattern {71111111/2111/311/2/1}
 Group   2 Type O   : 8s3p3d contracted to 6s3p3d pattern {311111/111/111}
 Group   3 Type H   : 5s2p contracted to 3s1p pattern {311/2}
 Group   4 Type N   : 8s3p3d contracted to 6s3p3d pattern {311111/111/111}

Atom   0S    basis set group =>   1
Atom   1O    basis set group =>   2
Atom   2O    basis set group =>   2
Atom   3O    basis set group =>   2
Atom   4O    basis set group =>   2
Atom   5H    basis set group =>   3
Atom   6S    basis set group =>   1
Atom   7O    basis set group =>   2
Atom   8O    basis set group =>   2
Atom   9O    basis set group =>   2
Atom  10O    basis set group =>   2
Atom  11H    basis set group =>   3
Atom  12S    basis set group =>   1
Atom  13O    basis set group =>   2
Atom  14O    basis set group =>   2
Atom  15O    basis set group =>   2
Atom  16O    basis set group =>   2
Atom  17H    basis set group =>   3
Atom  18S    basis set group =>   1
Atom  19O    basis set group =>   2
Atom  20O    basis set group =>   2
Atom  21O    basis set group =>   2
Atom  22O    basis set group =>   2
Atom  23H    basis set group =>   3
Atom  24N    basis set group =>   4
Atom  25H    basis set group =>   3
Atom  26H    basis set group =>   3
Atom  27H    basis set group =>   3
Atom  28H    basis set group =>   3
Atom  29N    basis set group =>   4
Atom  30H    basis set group =>   3
Atom  31H    basis set group =>   3
Atom  32H    basis set group =>   3
Atom  33H    basis set group =>   3
Atom  34N    basis set group =>   4
Atom  35H    basis set group =>   3
Atom  36H    basis set group =>   3
Atom  37H    basis set group =>   3
Atom  38H    basis set group =>   3
Atom  39N    basis set group =>   4
Atom  40H    basis set group =>   3
Atom  41H    basis set group =>   3
Atom  42H    basis set group =>   3
Atom  43H    basis set group =>   3
------------------------------------------------------------------------------
                           ORCA GTO INTEGRAL CALCULATION
                           -- RI-GTO INTEGRALS CHOSEN --
------------------------------------------------------------------------------
------------------------------------------------------------------------------
                   ___                                                        
                  /   \      - P O W E R E D   B Y -                         
                 /     \                                                     
                 |  |  |   _    _      __       _____    __    __             
                 |  |  |  | |  | |    /  \     |  _  \  |  |  /  |          
                  \  \/   | |  | |   /    \    | | | |  |  | /  /          
                 / \  \   | |__| |  /  /\  \   | |_| |  |  |/  /          
                |  |  |   |  __  | /  /__\  \  |    /   |      \           
                |  |  |   | |  | | |   __   |  |    \   |  |\   \          
                \     /   | |  | | |  |  |  |  | |\  \  |  | \   \       
                 \___/    |_|  |_| |__|  |__|  |_| \__\ |__|  \__/        
                                                                              
                      - O R C A' S   B I G   F R I E N D -                    
                                      &                                       
                       - I N T E G R A L  F E E D E R -                       
                                                                              
 v1 FN, 2020, v2 2021                                                         
------------------------------------------------------------------------------


Reading SHARK input file 4sa4am-44_1_996.SHARKINP.tmp ... ok
----------------------
SHARK INTEGRAL PACKAGE
----------------------

Number of atoms                             ...     44
Number of basis functions                   ...    608
Number of shells                            ...    296
Maximum angular momentum                    ...      2
Integral batch strategy                     ... SHARK/LIBINT Hybrid
RI-J (if used) integral strategy            ... SPLIT-RIJ (Revised 2003 algorithm where possible)
Printlevel                                  ...      1
Contraction scheme used                     ... SEGMENTED contraction
Coulomb Range Separation                    ... NOT USED
Exchange Range Separation                   ... NOT USED
Finite Nucleus Model                        ... NOT USED
Auxiliary Coulomb fitting basis             ... AVAILABLE
   # of basis functions in Aux-J            ...    924
   # of shells in Aux-J                     ...    388
   Maximum angular momentum in Aux-J        ...      4
Auxiliary J/K fitting basis                 ... NOT available
Auxiliary Correlation fitting basis         ... NOT available
Auxiliary 'external' fitting basis          ... NOT available
Integral threshold                          ...     2.500000e-11
Primitive cut-off                           ...     2.500000e-12
Primitive pair pre-selection threshold      ...     2.500000e-12

Calculating pre-screening integrals         ... done (  0.2 sec) Dimension = 296
Organizing shell pair data                  ... done (  0.5 sec)
Shell pair information
Total number of shell pairs                 ...     43956
Shell pairs after pre-screening             ...     31710
Total number of primitive shell pairs       ...    164538
Primitive shell pairs kept                  ...     71472
          la=0 lb=0:  10765 shell pairs
          la=1 lb=0:   9930 shell pairs
          la=1 lb=1:   2339 shell pairs
          la=2 lb=0:   5515 shell pairs
          la=2 lb=1:   2452 shell pairs
          la=2 lb=2:    709 shell pairs

Calculating one electron integrals          ... done (  0.2 sec)
Calculating RI/J V-Matrix + Cholesky decomp.... done (  0.1 sec)
Calculating Nuclear repulsion               ... done (  0.0 sec) ENN=   3958.481073846262 Eh

SHARK setup successfully completed in   1.4 seconds

Maximum memory used throughout the entire GTOINT-calculation: 229.6 MB
-------------------------------------------------------------------------------
                                 ORCA SCF
-------------------------------------------------------------------------------

------------
SCF SETTINGS
------------
Hamiltonian:
 Density Functional     Method          .... DFT(GTOs)
 Exchange Functional    Exchange        .... B973C
 Correlation Functional Correlation     .... B973C
 Gradients option       PostSCFGGA      .... off
   Density functional embedding theory  .... OFF
 RI-approximation to the Coulomb term is turned on
   Number of AuxJ basis functions       .... 924


General Settings:
 Integral files         IntName         .... 4sa4am-44_1_996
 Hartree-Fock type      HFTyp           .... RHF
 Total Charge           Charge          ....    0
 Multiplicity           Mult            ....    1
 Number of Electrons    NEL             ....  240
 Basis Dimension        Dim             ....  608
 Nuclear Repulsion      ENuc            ....   3958.4810738463 Eh

Convergence Acceleration:
 DIIS                   CNVDIIS         .... on
   Start iteration      DIISMaxIt       ....    12
   Startup error        DIISStart       ....  0.200000
   # of expansion vecs  DIISMaxEq       ....     5
   Bias factor          DIISBfac        ....   1.050
   Max. coefficient     DIISMaxC        ....  10.000
 Trust-Rad. Augm. Hess. CNVTRAH         .... auto
   Auto Start mean grad. ratio tolernc. ....  1.125000
   Auto Start start iteration           ....    20
   Auto Start num. interpolation iter.  ....    10
   Max. Number of Micro iterations      ....    16
   Max. Number of Macro iterations      .... Maxiter - #DIIS iter
   Number of Davidson start vectors     ....     2
   Converg. threshold I  (grad. norm)   ....   1.000e-05
   Converg. threshold II (energy diff.) ....   1.000e-08
   Grad. Scal. Fac. for Micro threshold ....   0.100
   Minimum threshold for Micro iter.    ....   0.010
   NR start threshold (gradient norm)   ....   0.001
   Initial trust radius                 ....   0.400
   Minimum AH scaling param. (alpha)    ....   1.000
   Maximum AH scaling param. (alpha)    .... 1000.000
   Orbital update algorithm             .... Taylor
   White noise on init. David. guess    .... on
   Maximum white noise                  ....   0.010
   Quad. conv. algorithm                .... NR
   COSX micro iterations for RIJONX calc.... off
 SOSCF                  CNVSOSCF        .... on
   Start iteration      SOSCFMaxIt      ....   150
   Startup grad/error   SOSCFStart      ....  0.003300
 Level Shifting         CNVShift        .... on
   Level shift para.    LevelShift      ....    0.2500
   Turn off err/grad.   ShiftErr        ....    0.0010
 Zerner damping         CNVZerner       .... off
 Static damping         CNVDamp         .... on
   Fraction old density DampFac         ....    0.7000
   Max. Damping (<1)    DampMax         ....    0.9800
   Min. Damping (>=0)   DampMin         ....    0.0000
   Turn off err/grad.   DampErr         ....    0.1000
 Fernandez-Rico         CNVRico         .... off

SCF Procedure:
 Maximum # iterations   MaxIter         ....   125
 SCF integral mode      SCFMode         .... Direct
   Integral package                     .... SHARK and LIBINT hybrid scheme
 Reset frequency        DirectResetFreq ....    20
 Integral Threshold     Thresh          ....  2.500e-11 Eh
 Primitive CutOff       TCut            ....  2.500e-12 Eh

Convergence Tolerance:
 Convergence Check Mode ConvCheckMode   .... Total+1el-Energy
 Convergence forced     ConvForced      .... 0
 Energy Change          TolE            ....  1.000e-08 Eh
 1-El. energy change                    ....  1.000e-05 Eh
 Orbital Gradient       TolG            ....  1.000e-05
 Orbital Rotation angle TolX            ....  1.000e-05
 DIIS Error             TolErr          ....  5.000e-07


Diagonalization of the overlap matrix:
Smallest eigenvalue                        ... 1.857e-04
Time for diagonalization                   ...    0.123 sec
Threshold for overlap eigenvalues          ... 1.000e-08
Number of eigenvalues below threshold      ... 0
Time for construction of square roots      ...    0.095 sec
Total time needed                          ...    0.219 sec

--------------------------------
INITIAL GUESS: MINIMAL BASIS EHT
--------------------------------
The minimal basis has 156 functions
EHT matrix was diagonalized
Basis set overlap was calculated now projecting the orbitals
Using GuessMode=FMatrix for the initial guess
C*T matrix was formed
Effective Fockian was calculated
Effective Fockian was diagonalized
Initial density was built
                      ------------------
                      INITIAL GUESS DONE
                      ------------------
-------------------
DFT GRID GENERATION
-------------------

General Integration Accuracy     IntAcc      ... 4.388
Radial Grid Type                 RadialGrid  ... OptM3 with GC (2021)
Angular Grid (max. ang.)         AngularGrid ... 4 (Lebedev-302)
Angular grid pruning method      GridPruning ... 4 (adaptive)
Weight generation scheme         WeightScheme... Becke
Basis function cutoff            BFCut       ... 1.0000e-11
Integration weight cutoff        WCut        ... 1.0000e-14
Angular grids for H and He will be reduced by one unit
Partially contracted basis set               ... off
Rotationally invariant grid construction     ... off

Total number of grid points                  ...   217272
Total number of batches                      ...     3416
Average number of points per batch           ...       63
Average number of grid points per atom       ...     4938
Time for grid setup =    4.890 sec

--------------
SCF ITERATIONS
--------------
ITER       Energy         Delta-E        Max-DP      RMS-DP      [F,P]     Damp
               ***  Starting incremental Fock matrix formation  ***
  0  -3014.9613777240   0.000000000000 0.71363791  0.00584304  0.8471976 0.7000
  1  -3019.2379164519  -4.276538727892 0.16957114  0.00236039  0.5997619 0.7000
  2  -3021.1886698069  -1.950753355070 0.10552320  0.00144670  0.4111809 0.7000
  3  -3022.7301006647  -1.541430857807 0.08911296  0.00113699  0.2747576 0.7000
                               ***Turning on DIIS***
  4  -3023.8231247500  -1.093024085213 0.06692702  0.00085265  0.1825010 0.7000
  5  -3024.5822073899  -0.759082639941 0.04785743  0.00063228  0.1226825 0.7000
  6  -3025.1123450249  -0.530137634970 0.11232823  0.00152270  0.0857606 0.0000
  7  -3026.3522172341  -1.239872209243 0.00242839  0.00005068  0.0036515 0.0000
  8  -3026.3521686017   0.000048632432 0.00117904  0.00001831  0.0050638 0.0000
                      *** Initiating the SOSCF procedure ***
                           *** Shutting down DIIS ***
                      *** Re-Reading the Fockian *** 
                      *** Removing any level shift *** 
ITER      Energy       Delta-E        Grad      Rot      Max-DP    RMS-DP
  9  -3026.35233685  -0.0001682450  0.000093  0.000093  0.000655  0.000012
               *** Restarting incremental Fock matrix formation ***
 10  -3026.35234550  -0.0000086500  0.000069  0.000176  0.000379  0.000008
 11  -3026.35234096   0.0000045362  0.000155  0.000119  0.000261  0.000005
 12  -3026.35234659  -0.0000056281  0.000012  0.000036  0.000097  0.000001
 13  -3026.35234654   0.0000000453  0.000023  0.000026  0.000054  0.000001
 14  -3026.35234664  -0.0000000926  0.000006  0.000011  0.000063  0.000001
 15  -3026.35234671  -0.0000000785  0.000011  0.000007  0.000039  0.000000
                  ***Gradient check signals convergence***
              ***Rediagonalizing the Fockian in SOSCF/NRSCF***

               *****************************************************
               *                     SUCCESS                       *
               *           SCF CONVERGED AFTER  16 CYCLES          *
               *****************************************************


----------------
TOTAL SCF ENERGY
----------------

Total Energy       :        -3026.35234662 Eh          -82351.23401 eV

Components:
Nuclear Repulsion  :         3958.48107385 Eh          107715.74618 eV
Electronic Energy  :        -6984.83342047 Eh         -190066.98019 eV
One Electron Energy:       -12067.10912352 Eh         -328362.73289 eV
Two Electron Energy:         5082.27570305 Eh          138295.75270 eV

Virial components:
Potential Energy   :        -6045.89064029 Eh         -164517.04821 eV
Kinetic Energy     :         3019.53829367 Eh           82165.81420 eV
Virial Ratio       :            2.00225665


DFT components:
N(Alpha)           :      120.000044727278 electrons
N(Beta)            :      120.000044727278 electrons
N(Total)           :      240.000089454556 electrons
E(XC)              :     -275.109654093494 Eh       
DFET-embed. en.    :        0.000000000000 Eh       

---------------
SCF CONVERGENCE
---------------

  Last Energy change         ...    9.2458e-08  Tolerance :   1.0000e-08
  Last MAX-Density change    ...    1.0207e-05  Tolerance :   1.0000e-07
  Last RMS-Density change    ...    1.0068e-07  Tolerance :   5.0000e-09
  Last Orbital Gradient      ...    1.7777e-06  Tolerance :   1.0000e-05
  Last Orbital Rotation      ...    2.8073e-06  Tolerance :   1.0000e-05

             **** THE GBW FILE WAS UPDATED (4sa4am-44_1_996.gbw) ****
             **** DENSITY 4sa4am-44_1_996.scfp WAS UPDATED ****
             **** ENERGY FILE WAS UPDATED (4sa4am-44_1_996.en.tmp) ****
             **** THE GBW FILE WAS UPDATED (4sa4am-44_1_996.gbw) ****
             **** DENSITY 4sa4am-44_1_996.scfp WAS UPDATED ****
----------------
ORBITAL ENERGIES
----------------

  NO   OCC          E(Eh)            E(eV) 
   0   2.0000     -88.267248     -2401.8739 
   1   2.0000     -88.265931     -2401.8381 
   2   2.0000     -88.256286     -2401.5756 
   3   2.0000     -88.251775     -2401.4529 
   4   2.0000     -18.787297      -511.2283 
   5   2.0000     -18.786583      -511.2089 
   6   2.0000     -18.783312      -511.1199 
   7   2.0000     -18.783127      -511.1149 
   8   2.0000     -18.745478      -510.0904 
   9   2.0000     -18.740316      -509.9499 
  10   2.0000     -18.734365      -509.7880 
  11   2.0000     -18.733755      -509.7714 
  12   2.0000     -18.733722      -509.7705 
  13   2.0000     -18.733118      -509.7540 
  14   2.0000     -18.731671      -509.7147 
  15   2.0000     -18.730434      -509.6810 
  16   2.0000     -18.725882      -509.5572 
  17   2.0000     -18.723776      -509.4999 
  18   2.0000     -18.720124      -509.4005 
  19   2.0000     -18.718269      -509.3500 
  20   2.0000     -14.069164      -382.8414 
  21   2.0000     -14.067808      -382.8045 
  22   2.0000     -14.067443      -382.7946 
  23   2.0000     -14.057096      -382.5130 
  24   2.0000      -7.928589      -215.7479 
  25   2.0000      -7.927324      -215.7134 
  26   2.0000      -7.917978      -215.4591 
  27   2.0000      -7.913549      -215.3386 
  28   2.0000      -5.959272      -162.1600 
  29   2.0000      -5.957979      -162.1249 
  30   2.0000      -5.956083      -162.0733 
  31   2.0000      -5.955824      -162.0662 
  32   2.0000      -5.954759      -162.0372 
  33   2.0000      -5.954646      -162.0342 
  34   2.0000      -5.949153      -161.8847 
  35   2.0000      -5.945516      -161.7857 
  36   2.0000      -5.944711      -161.7638 
  37   2.0000      -5.944572      -161.7600 
  38   2.0000      -5.941023      -161.6634 
  39   2.0000      -5.940176      -161.6404 
  40   2.0000      -1.091015       -29.6880 
  41   2.0000      -1.089930       -29.6585 
  42   2.0000      -1.080837       -29.4111 
  43   2.0000      -1.076792       -29.3010 
  44   2.0000      -0.962693       -26.1962 
  45   2.0000      -0.961258       -26.1572 
  46   2.0000      -0.953109       -25.9354 
  47   2.0000      -0.951640       -25.8954 
  48   2.0000      -0.937722       -25.5167 
  49   2.0000      -0.934207       -25.4211 
  50   2.0000      -0.930423       -25.3181 
  51   2.0000      -0.929726       -25.2991 
  52   2.0000      -0.927070       -25.2269 
  53   2.0000      -0.923640       -25.1335 
  54   2.0000      -0.922646       -25.1065 
  55   2.0000      -0.918308       -24.9884 
  56   2.0000      -0.897146       -24.4126 
  57   2.0000      -0.895210       -24.3599 
  58   2.0000      -0.894642       -24.3444 
  59   2.0000      -0.885914       -24.1069 
  60   2.0000      -0.594739       -16.1837 
  61   2.0000      -0.592417       -16.1205 
  62   2.0000      -0.581057       -15.8114 
  63   2.0000      -0.577062       -15.7027 
  64   2.0000      -0.524108       -14.2617 
  65   2.0000      -0.520061       -14.1516 
  66   2.0000      -0.518092       -14.0980 
  67   2.0000      -0.516173       -14.0458 
  68   2.0000      -0.509993       -13.8776 
  69   2.0000      -0.509016       -13.8510 
  70   2.0000      -0.507363       -13.8061 
  71   2.0000      -0.504115       -13.7177 
  72   2.0000      -0.503381       -13.6977 
  73   2.0000      -0.502621       -13.6770 
  74   2.0000      -0.500806       -13.6276 
  75   2.0000      -0.492598       -13.4043 
  76   2.0000      -0.486493       -13.2382 
  77   2.0000      -0.479666       -13.0524 
  78   2.0000      -0.469393       -12.7728 
  79   2.0000      -0.464838       -12.6489 
  80   2.0000      -0.444616       -12.0986 
  81   2.0000      -0.438479       -11.9316 
  82   2.0000      -0.438074       -11.9206 
  83   2.0000      -0.435446       -11.8491 
  84   2.0000      -0.434954       -11.8357 
  85   2.0000      -0.430869       -11.7246 
  86   2.0000      -0.420465       -11.4414 
  87   2.0000      -0.414738       -11.2856 
  88   2.0000      -0.393565       -10.7095 
  89   2.0000      -0.391757       -10.6603 
  90   2.0000      -0.389998       -10.6124 
  91   2.0000      -0.387294       -10.5388 
  92   2.0000      -0.332065        -9.0360 
  93   2.0000      -0.330558        -8.9949 
  94   2.0000      -0.325134        -8.8473 
  95   2.0000      -0.323386        -8.7998 
  96   2.0000      -0.321724        -8.7545 
  97   2.0000      -0.321364        -8.7447 
  98   2.0000      -0.319415        -8.6917 
  99   2.0000      -0.316087        -8.6012 
 100   2.0000      -0.311772        -8.4837 
 101   2.0000      -0.310181        -8.4404 
 102   2.0000      -0.308661        -8.3991 
 103   2.0000      -0.306751        -8.3471 
 104   2.0000      -0.305591        -8.3156 
 105   2.0000      -0.303428        -8.2567 
 106   2.0000      -0.300548        -8.1783 
 107   2.0000      -0.296086        -8.0569 
 108   2.0000      -0.275458        -7.4956 
 109   2.0000      -0.271358        -7.3840 
 110   2.0000      -0.269936        -7.3453 
 111   2.0000      -0.264805        -7.2057 
 112   2.0000      -0.252925        -6.8824 
 113   2.0000      -0.252671        -6.8755 
 114   2.0000      -0.244955        -6.6656 
 115   2.0000      -0.243025        -6.6130 
 116   2.0000      -0.242655        -6.6030 
 117   2.0000      -0.241639        -6.5753 
 118   2.0000      -0.230503        -6.2723 
 119   2.0000      -0.225620        -6.1394 
 120   0.0000      -0.015140        -0.4120 
 121   0.0000       0.004077         0.1109 
 122   0.0000       0.005987         0.1629 
 123   0.0000       0.007745         0.2107 
 124   0.0000       0.027407         0.7458 
 125   0.0000       0.029560         0.8044 
 126   0.0000       0.035465         0.9650 
 127   0.0000       0.041202         1.1212 
 128   0.0000       0.055896         1.5210 
 129   0.0000       0.061188         1.6650 
 130   0.0000       0.066089         1.7984 
 131   0.0000       0.070507         1.9186 
 132   0.0000       0.072787         1.9806 
 133   0.0000       0.077892         2.1195 
 134   0.0000       0.081708         2.2234 
 135   0.0000       0.085005         2.3131 
 136   0.0000       0.087338         2.3766 
 137   0.0000       0.091179         2.4811 
 138   0.0000       0.097209         2.6452 
 139   0.0000       0.100147         2.7251 
 140   0.0000       0.105923         2.8823 
 141   0.0000       0.107527         2.9260 
 142   0.0000       0.112157         3.0520 
 143   0.0000       0.115316         3.1379 
 144   0.0000       0.119438         3.2501 
 145   0.0000       0.135075         3.6756 
 146   0.0000       0.137818         3.7502 
 147   0.0000       0.140842         3.8325 
 148   0.0000       0.149612         4.0712 
 149   0.0000       0.152809         4.1581 
 150   0.0000       0.156044         4.2462 
 151   0.0000       0.162285         4.4160 
 152   0.0000       0.164658         4.4806 
 153   0.0000       0.165448         4.5021 
 154   0.0000       0.169757         4.6193 
 155   0.0000       0.172862         4.7038 
 156   0.0000       0.176031         4.7901 
 157   0.0000       0.179016         4.8713 
 158   0.0000       0.181557         4.9404 
 159   0.0000       0.184831         5.0295 
 160   0.0000       0.186164         5.0658 
 161   0.0000       0.189739         5.1631 
 162   0.0000       0.201121         5.4728 
 163   0.0000       0.203740         5.5440 
 164   0.0000       0.210450         5.7266 
 165   0.0000       0.212472         5.7817 
 166   0.0000       0.217624         5.9219 
 167   0.0000       0.219184         5.9643 
 168   0.0000       0.220922         6.0116 
 169   0.0000       0.226802         6.1716 
 170   0.0000       0.229099         6.2341 
 171   0.0000       0.234449         6.3797 
 172   0.0000       0.236762         6.4426 
 173   0.0000       0.245216         6.6727 
 174   0.0000       0.248305         6.7567 
 175   0.0000       0.251637         6.8474 
 176   0.0000       0.255058         6.9405 
 177   0.0000       0.260471         7.0878 
 178   0.0000       0.262829         7.1519 
 179   0.0000       0.267898         7.2899 
 180   0.0000       0.275426         7.4947 
 181   0.0000       0.278704         7.5839 
 182   0.0000       0.279177         7.5968 
 183   0.0000       0.286948         7.8083 
 184   0.0000       0.295669         8.0456 
 185   0.0000       0.299151         8.1403 
 186   0.0000       0.309617         8.4251 
 187   0.0000       0.311143         8.4666 
 188   0.0000       0.316625         8.6158 
 189   0.0000       0.321033         8.7358 
 190   0.0000       0.323139         8.7931 
 191   0.0000       0.329572         8.9681 
 192   0.0000       0.336117         9.1462 
 193   0.0000       0.341977         9.3057 
 194   0.0000       0.342126         9.3097 
 195   0.0000       0.346338         9.4243 
 196   0.0000       0.347086         9.4447 
 197   0.0000       0.354518         9.6469 
 198   0.0000       0.357007         9.7146 
 199   0.0000       0.360158         9.8004 
 200   0.0000       0.362340         9.8598 
 201   0.0000       0.366833         9.9820 
 202   0.0000       0.372711        10.1420 
 203   0.0000       0.373663        10.1679 
 204   0.0000       0.379366        10.3231 
 205   0.0000       0.382220        10.4007 
 206   0.0000       0.383149        10.4260 
 207   0.0000       0.386918        10.5286 
 208   0.0000       0.389918        10.6102 
 209   0.0000       0.397528        10.8173 
 210   0.0000       0.399952        10.8832 
 211   0.0000       0.402456        10.9514 
 212   0.0000       0.406880        11.0718 
 213   0.0000       0.408751        11.1227 
 214   0.0000       0.410911        11.1815 
 215   0.0000       0.413463        11.2509 
 216   0.0000       0.416592        11.3361 
 217   0.0000       0.417717        11.3667 
 218   0.0000       0.419405        11.4126 
 219   0.0000       0.427220        11.6252 
 220   0.0000       0.432405        11.7663 
 221   0.0000       0.436848        11.8872 
 222   0.0000       0.442855        12.0507 
 223   0.0000       0.444363        12.0917 
 224   0.0000       0.450746        12.2654 
 225   0.0000       0.452738        12.3196 
 226   0.0000       0.458603        12.4792 
 227   0.0000       0.467180        12.7126 
 228   0.0000       0.471811        12.8386 
 229   0.0000       0.474906        12.9228 
 230   0.0000       0.478389        13.0176 
 231   0.0000       0.482723        13.1355 
 232   0.0000       0.488557        13.2943 
 233   0.0000       0.490199        13.3390 
 234   0.0000       0.495651        13.4874 
 235   0.0000       0.499276        13.5860 
 236   0.0000       0.501627        13.6500 
 237   0.0000       0.508566        13.8388 
 238   0.0000       0.511703        13.9241 
 239   0.0000       0.513662        13.9774 
 240   0.0000       0.518993        14.1225 
 241   0.0000       0.526497        14.3267 
 242   0.0000       0.532463        14.4890 
 243   0.0000       0.534812        14.5530 
 244   0.0000       0.538964        14.6660 
 245   0.0000       0.546372        14.8675 
 246   0.0000       0.547788        14.9061 
 247   0.0000       0.554639        15.0925 
 248   0.0000       0.558603        15.2003 
 249   0.0000       0.562126        15.2962 
 250   0.0000       0.564749        15.3676 
 251   0.0000       0.573572        15.6077 
 252   0.0000       0.581717        15.8293 
 253   0.0000       0.587730        15.9929 
 254   0.0000       0.589965        16.0538 
 255   0.0000       0.600304        16.3351 
 256   0.0000       0.604961        16.4618 
 257   0.0000       0.608376        16.5547 
 258   0.0000       0.611550        16.6411 
 259   0.0000       0.616363        16.7721 
 260   0.0000       0.618626        16.8337 
 261   0.0000       0.624356        16.9896 
 262   0.0000       0.634034        17.2529 
 263   0.0000       0.636186        17.3115 
 264   0.0000       0.642011        17.4700 
 265   0.0000       0.643767        17.5178 
 266   0.0000       0.657061        17.8795 
 267   0.0000       0.663884        18.0652 
 268   0.0000       0.667246        18.1567 
 269   0.0000       0.673836        18.3360 
 270   0.0000       0.677671        18.4404 
 271   0.0000       0.682161        18.5625 
 272   0.0000       0.689916        18.7736 
 273   0.0000       0.694975        18.9112 
 274   0.0000       0.702241        19.1089 
 275   0.0000       0.712122        19.3778 
 276   0.0000       0.713070        19.4036 
 277   0.0000       0.715852        19.4793 
 278   0.0000       0.721277        19.6270 
 279   0.0000       0.728640        19.8273 
 280   0.0000       0.739985        20.1360 
 281   0.0000       0.748379        20.3644 
 282   0.0000       0.751325        20.4446 
 283   0.0000       0.752118        20.4662 
 284   0.0000       0.758123        20.6296 
 285   0.0000       0.760369        20.6907 
 286   0.0000       0.774228        21.0678 
 287   0.0000       0.780893        21.2492 
 288   0.0000       0.781976        21.2786 
 289   0.0000       0.792877        21.5753 
 290   0.0000       0.794937        21.6313 
 291   0.0000       0.800440        21.7811 
 292   0.0000       0.808121        21.9901 
 293   0.0000       0.811261        22.0755 
 294   0.0000       0.817793        22.2533 
 295   0.0000       0.821957        22.3666 
 296   0.0000       0.822945        22.3935 
 297   0.0000       0.829801        22.5800 
 298   0.0000       0.832222        22.6459 
 299   0.0000       0.838316        22.8117 
 300   0.0000       0.842843        22.9349 
 301   0.0000       0.848303        23.0835 
 302   0.0000       0.857293        23.3281 
 303   0.0000       0.859390        23.3852 
 304   0.0000       0.870523        23.6881 
 305   0.0000       0.871911        23.7259 
 306   0.0000       0.875194        23.8152 
 307   0.0000       0.882141        24.0043 
 308   0.0000       0.882702        24.0195 
 309   0.0000       0.889633        24.2081 
 310   0.0000       0.890867        24.2417 
 311   0.0000       0.892240        24.2791 
 312   0.0000       0.896790        24.4029 
 313   0.0000       0.902952        24.5706 
 314   0.0000       0.905332        24.6353 
 315   0.0000       0.910500        24.7760 
 316   0.0000       0.911653        24.8073 
 317   0.0000       0.918086        24.9824 
 318   0.0000       0.924259        25.1504 
 319   0.0000       0.928036        25.2531 
 320   0.0000       0.936522        25.4841 
 321   0.0000       0.940870        25.6024 
 322   0.0000       0.944520        25.7017 
 323   0.0000       0.953522        25.9466 
 324   0.0000       0.955064        25.9886 
 325   0.0000       0.964019        26.2323 
 326   0.0000       0.968631        26.3578 
 327   0.0000       0.972240        26.4560 
 328   0.0000       0.977422        26.5970 
 329   0.0000       0.980367        26.6772 
 330   0.0000       0.991099        26.9692 
 331   0.0000       0.995157        27.0796 
 332   0.0000       1.004519        27.3343 
 333   0.0000       1.009184        27.4613 
 334   0.0000       1.012094        27.5405 
 335   0.0000       1.020058        27.7572 
 336   0.0000       1.026926        27.9441 
 337   0.0000       1.029208        28.0062 
 338   0.0000       1.033332        28.1184 
 339   0.0000       1.040937        28.3253 
 340   0.0000       1.047238        28.4968 
 341   0.0000       1.053336        28.6627 
 342   0.0000       1.060532        28.8585 
 343   0.0000       1.065208        28.9858 
 344   0.0000       1.070636        29.1335 
 345   0.0000       1.074925        29.2502 
 346   0.0000       1.082912        29.4675 
 347   0.0000       1.091937        29.7131 
 348   0.0000       1.096491        29.8370 
 349   0.0000       1.096738        29.8438 
 350   0.0000       1.103486        30.0274 
 351   0.0000       1.112078        30.2612 
 352   0.0000       1.116435        30.3797 
 353   0.0000       1.121220        30.5099 
 354   0.0000       1.128584        30.7103 
 355   0.0000       1.131604        30.7925 
 356   0.0000       1.138941        30.9921 
 357   0.0000       1.154753        31.4224 
 358   0.0000       1.162796        31.6413 
 359   0.0000       1.172025        31.8924 
 360   0.0000       1.179180        32.0871 
 361   0.0000       1.194683        32.5090 
 362   0.0000       1.203421        32.7468 
 363   0.0000       1.214133        33.0382 
 364   0.0000       1.230852        33.4932 
 365   0.0000       1.238429        33.6994 
 366   0.0000       1.243484        33.8369 
 367   0.0000       1.259241        34.2657 
 368   0.0000       1.291581        35.1457 
 369   0.0000       1.321799        35.9680 
 370   0.0000       1.336613        36.3711 
 371   0.0000       1.369289        37.2603 
 372   0.0000       1.530472        41.6463 
 373   0.0000       1.560533        42.4643 
 374   0.0000       1.579314        42.9753 
 375   0.0000       1.585497        43.1436 
 376   0.0000       1.597949        43.4824 
 377   0.0000       1.613348        43.9014 
 378   0.0000       1.646661        44.8079 
 379   0.0000       1.675752        45.5995 
 380   0.0000       1.763699        47.9927 
 381   0.0000       1.779305        48.4173 
 382   0.0000       1.784165        48.5496 
 383   0.0000       1.789092        48.6837 
 384   0.0000       1.799353        48.9629 
 385   0.0000       1.809247        49.2321 
 386   0.0000       1.812826        49.3295 
 387   0.0000       1.827879        49.7391 
 388   0.0000       1.854458        50.4624 
 389   0.0000       1.858621        50.5756 
 390   0.0000       1.883474        51.2519 
 391   0.0000       1.898168        51.6518 
 392   0.0000       1.913297        52.0635 
 393   0.0000       1.913894        52.0797 
 394   0.0000       1.921009        52.2733 
 395   0.0000       1.925444        52.3940 
 396   0.0000       1.929663        52.5088 
 397   0.0000       1.931076        52.5473 
 398   0.0000       1.948814        53.0299 
 399   0.0000       1.958378        53.2902 
 400   0.0000       1.962067        53.3906 
 401   0.0000       1.964868        53.4668 
 402   0.0000       1.973149        53.6921 
 403   0.0000       1.975447        53.7546 
 404   0.0000       1.977622        53.8138 
 405   0.0000       1.982791        53.9545 
 406   0.0000       1.988972        54.1227 
 407   0.0000       1.997068        54.3430 
 408   0.0000       2.000015        54.4232 
 409   0.0000       2.006932        54.6114 
 410   0.0000       2.018038        54.9136 
 411   0.0000       2.020290        54.9749 
 412   0.0000       2.029419        55.2233 
 413   0.0000       2.033072        55.3227 
 414   0.0000       2.034910        55.3727 
 415   0.0000       2.040409        55.5224 
 416   0.0000       2.043061        55.5945 
 417   0.0000       2.053133        55.8686 
 418   0.0000       2.059056        56.0298 
 419   0.0000       2.060836        56.0782 
 420   0.0000       2.067153        56.2501 
 421   0.0000       2.072077        56.3841 
 422   0.0000       2.073650        56.4269 
 423   0.0000       2.081176        56.6317 
 424   0.0000       2.089060        56.8462 
 425   0.0000       2.091145        56.9030 
 426   0.0000       2.094741        57.0008 
 427   0.0000       2.102090        57.2008 
 428   0.0000       2.106160        57.3115 
 429   0.0000       2.109177        57.3936 
 430   0.0000       2.114073        57.5268 
 431   0.0000       2.118426        57.6453 
 432   0.0000       2.122279        57.7502 
 433   0.0000       2.132908        58.0394 
 434   0.0000       2.136472        58.1363 
 435   0.0000       2.139770        58.2261 
 436   0.0000       2.145748        58.3888 
 437   0.0000       2.157986        58.7218 
 438   0.0000       2.160194        58.7819 
 439   0.0000       2.167660        58.9850 
 440   0.0000       2.173655        59.1482 
 441   0.0000       2.176427        59.2236 
 442   0.0000       2.182582        59.3911 
 443   0.0000       2.186613        59.5008 
 444   0.0000       2.195276        59.7365 
 445   0.0000       2.198880        59.8346 
 446   0.0000       2.208171        60.0874 
 447   0.0000       2.213296        60.2269 
 448   0.0000       2.217283        60.3353 
 449   0.0000       2.229079        60.6563 
 450   0.0000       2.232663        60.7538 
 451   0.0000       2.243997        61.0623 
 452   0.0000       2.267969        61.7146 
 453   0.0000       2.275125        61.9093 
 454   0.0000       2.279532        62.0292 
 455   0.0000       2.289971        62.3133 
 456   0.0000       2.293875        62.4195 
 457   0.0000       2.297674        62.5229 
 458   0.0000       2.309808        62.8531 
 459   0.0000       2.318976        63.1025 
 460   0.0000       2.332452        63.4692 
 461   0.0000       2.336273        63.5732 
 462   0.0000       2.343299        63.7644 
 463   0.0000       2.356012        64.1104 
 464   0.0000       2.361506        64.2598 
 465   0.0000       2.375886        64.6511 
 466   0.0000       2.380193        64.7683 
 467   0.0000       2.386282        64.9340 
 468   0.0000       2.395840        65.1941 
 469   0.0000       2.406195        65.4759 
 470   0.0000       2.422485        65.9192 
 471   0.0000       2.424008        65.9606 
 472   0.0000       2.431785        66.1722 
 473   0.0000       2.449522        66.6549 
 474   0.0000       2.456018        66.8316 
 475   0.0000       2.466390        67.1139 
 476   0.0000       2.471104        67.2421 
 477   0.0000       2.477616        67.4194 
 478   0.0000       2.484794        67.6147 
 479   0.0000       2.488084        67.7042 
 480   0.0000       2.494236        67.8716 
 481   0.0000       2.498859        67.9974 
 482   0.0000       2.510689        68.3193 
 483   0.0000       2.518699        68.5373 
 484   0.0000       2.531173        68.8767 
 485   0.0000       2.536777        69.0292 
 486   0.0000       2.551417        69.4276 
 487   0.0000       2.557334        69.5886 
 488   0.0000       2.564470        69.7828 
 489   0.0000       2.569769        69.9270 
 490   0.0000       2.575881        70.0933 
 491   0.0000       2.581123        70.2359 
 492   0.0000       2.585882        70.3654 
 493   0.0000       2.592604        70.5484 
 494   0.0000       2.609826        71.0170 
 495   0.0000       2.623802        71.3973 
 496   0.0000       2.653484        72.2050 
 497   0.0000       2.658089        72.3303 
 498   0.0000       2.664451        72.5034 
 499   0.0000       2.674782        72.7845 
 500   0.0000       2.696617        73.3787 
 501   0.0000       2.720621        74.0319 
 502   0.0000       2.733070        74.3706 
 503   0.0000       2.743593        74.6570 
 504   0.0000       2.746983        74.7492 
 505   0.0000       2.756403        75.0056 
 506   0.0000       2.765671        75.2577 
 507   0.0000       2.781719        75.6944 
 508   0.0000       2.787116        75.8413 
 509   0.0000       2.796312        76.0915 
 510   0.0000       2.808733        76.4295 
 511   0.0000       2.821487        76.7766 
 512   0.0000       2.834889        77.1413 
 513   0.0000       2.838681        77.2444 
 514   0.0000       2.852404        77.6178 
 515   0.0000       2.858532        77.7846 
 516   0.0000       2.865756        77.9812 
 517   0.0000       2.873102        78.1811 
 518   0.0000       2.879604        78.3580 
 519   0.0000       2.892363        78.7052 
 520   0.0000       2.909393        79.1686 
 521   0.0000       2.919458        79.4425 
 522   0.0000       2.921986        79.5113 
 523   0.0000       2.929933        79.7275 
 524   0.0000       2.934483        79.8513 
 525   0.0000       2.938732        79.9670 
 526   0.0000       2.952342        80.3373 
 527   0.0000       2.954452        80.3947 
 528   0.0000       2.969121        80.7939 
 529   0.0000       2.980846        81.1130 
 530   0.0000       2.986004        81.2533 
 531   0.0000       2.991147        81.3933 
 532   0.0000       2.992905        81.4411 
 533   0.0000       2.999636        81.6243 
 534   0.0000       3.003588        81.7318 
 535   0.0000       3.017380        82.1071 
 536   0.0000       3.017880        82.1207 
 537   0.0000       3.027988        82.3958 
 538   0.0000       3.042739        82.7972 
 539   0.0000       3.047987        82.9400 
 540   0.0000       3.060592        83.2829 
 541   0.0000       3.073484        83.6337 
 542   0.0000       3.076351        83.7118 
 543   0.0000       3.078764        83.7774 
 544   0.0000       3.096216        84.2523 
 545   0.0000       3.103501        84.4506 
 546   0.0000       3.121653        84.9445 
 547   0.0000       3.133935        85.2787 
 548   0.0000       3.146559        85.6222 
 549   0.0000       3.154858        85.8480 
 550   0.0000       3.172170        86.3191 
 551   0.0000       3.181433        86.5712 
 552   0.0000       3.190364        86.8142 
 553   0.0000       3.201231        87.1099 
 554   0.0000       3.220302        87.6289 
 555   0.0000       3.230614        87.9095 
 556   0.0000       3.235671        88.0471 
 557   0.0000       3.245300        88.3091 
 558   0.0000       3.297018        89.7164 
 559   0.0000       3.303059        89.8808 
 560   0.0000       3.311356        90.1066 
 561   0.0000       3.332918        90.6933 
 562   0.0000       3.360894        91.4546 
 563   0.0000       3.379951        91.9731 
 564   0.0000       3.386160        92.1421 
 565   0.0000       3.398557        92.4794 
 566   0.0000       3.421111        93.0932 
 567   0.0000       3.467017        94.3423 
 568   0.0000       3.474554        94.5474 
 569   0.0000       3.477395        94.6247 
 570   0.0000       3.481199        94.7282 
 571   0.0000       3.515518        95.6621 
 572   0.0000       3.529864        96.0525 
 573   0.0000       3.532762        96.1313 
 574   0.0000       3.545596        96.4806 
 575   0.0000       3.583066        97.5002 
 576   0.0000       3.607291        98.1594 
 577   0.0000       3.614212        98.3477 
 578   0.0000       3.626218        98.6744 
 579   0.0000       3.631068        98.8064 
 580   0.0000       3.641646        99.0942 
 581   0.0000       3.654017        99.4309 
 582   0.0000       3.663740        99.6954 
 583   0.0000       3.702440       100.7485 
 584   0.0000      19.866851       540.6045 
 585   0.0000      19.917680       541.9876 
 586   0.0000      19.932466       542.3900 
 587   0.0000      20.152948       548.3896 
 588   0.0000      31.635034       860.8330 
 589   0.0000      31.659378       861.4955 
 590   0.0000      31.718378       863.1009 
 591   0.0000      31.734427       863.5377 
 592   0.0000      43.284755      1177.8381 
 593   0.0000      43.293064      1178.0642 
 594   0.0000      43.298038      1178.1995 
 595   0.0000      43.309729      1178.5176 
 596   0.0000      43.392493      1180.7698 
 597   0.0000      43.423923      1181.6250 
 598   0.0000      43.437752      1182.0013 
 599   0.0000      43.453924      1182.4414 
 600   0.0000      43.464837      1182.7383 
 601   0.0000      43.475088      1183.0173 
 602   0.0000      43.488670      1183.3869 
 603   0.0000      43.503351      1183.7864 
 604   0.0000      43.536440      1184.6868 
 605   0.0000      43.562622      1185.3992 
 606   0.0000      43.589977      1186.1436 
 607   0.0000      43.782565      1191.3842 

                    ********************************
                    * MULLIKEN POPULATION ANALYSIS *
                    ********************************

-----------------------
MULLIKEN ATOMIC CHARGES
-----------------------
   0 S :    1.090255
   1 O :   -0.508658
   2 O :   -0.515741
   3 O :   -0.702805
   4 O :   -0.700250
   5 H :    0.460244
   6 S :    1.210964
   7 O :   -0.598767
   8 O :   -0.593874
   9 O :   -0.665832
  10 O :   -0.617575
  11 H :    0.454922
  12 S :    1.122402
  13 O :   -0.534556
  14 O :   -0.515379
  15 O :   -0.715379
  16 O :   -0.697383
  17 H :    0.458060
  18 S :    1.214163
  19 O :   -0.657357
  20 O :   -0.603860
  21 O :   -0.606741
  22 O :   -0.610137
  23 H :    0.452749
  24 N :   -0.749160
  25 H :    0.383450
  26 H :    0.401938
  27 H :    0.385599
  28 H :    0.408254
  29 N :   -0.781484
  30 H :    0.391145
  31 H :    0.394740
  32 H :    0.384787
  33 H :    0.472453
  34 N :   -0.811508
  35 H :    0.503777
  36 H :    0.377573
  37 H :    0.408542
  38 H :    0.379455
  39 N :   -0.756736
  40 H :    0.402815
  41 H :    0.384547
  42 H :    0.402569
  43 H :    0.397776
Sum of atomic charges:   -0.0000000

--------------------------------
MULLIKEN REDUCED ORBITAL CHARGES
--------------------------------
  0 S s       :     5.163102  s :     5.163102
      pz      :     2.968099  p :     8.860502
      px      :     2.967560
      py      :     2.924843
      dz2     :     0.147311  d :     0.886141
      dxz     :     0.180549
      dyz     :     0.193341
      dx2y2   :     0.191006
      dxy     :     0.173934
  1 O s       :     3.836273  s :     3.836273
      pz      :     1.504226  p :     4.639734
      px      :     1.531422
      py      :     1.604086
      dz2     :     0.002461  d :     0.032651
      dxz     :     0.007300
      dyz     :     0.008179
      dx2y2   :     0.006056
      dxy     :     0.008655
  2 O s       :     3.838624  s :     3.838624
      pz      :     1.591226  p :     4.645981
      px      :     1.664250
      py      :     1.390504
      dz2     :     0.003449  d :     0.031136
      dxz     :     0.005238
      dyz     :     0.010445
      dx2y2   :     0.005050
      dxy     :     0.006955
  3 O s       :     3.838678  s :     3.838678
      pz      :     1.699488  p :     4.785492
      px      :     1.325238
      py      :     1.760765
      dz2     :     0.012083  d :     0.078636
      dxz     :     0.015713
      dyz     :     0.015108
      dx2y2   :     0.017238
      dxy     :     0.018493
  4 O s       :     3.841748  s :     3.841748
      pz      :     1.581479  p :     4.794893
      px      :     1.578084
      py      :     1.635330
      dz2     :     0.008845  d :     0.063609
      dxz     :     0.016443
      dyz     :     0.009350
      dx2y2   :     0.015909
      dxy     :     0.013063
  5 H s       :     0.539756  s :     0.539756
  6 S s       :     5.079652  s :     5.079652
      pz      :     2.935883  p :     8.825496
      px      :     2.964839
      py      :     2.924773
      dz2     :     0.171728  d :     0.883888
      dxz     :     0.198670
      dyz     :     0.182671
      dx2y2   :     0.157422
      dxy     :     0.173397
  7 O s       :     3.862682  s :     3.862682
      pz      :     1.574027  p :     4.700440
      px      :     1.497045
      py      :     1.629368
      dz2     :     0.002302  d :     0.035645
      dxz     :     0.010840
      dyz     :     0.006682
      dx2y2   :     0.006389
      dxy     :     0.009433
  8 O s       :     3.862064  s :     3.862064
      pz      :     1.420686  p :     4.695582
      px      :     1.708034
      py      :     1.566862
      dz2     :     0.005920  d :     0.036228
      dxz     :     0.007778
      dyz     :     0.011402
      dx2y2   :     0.006341
      dxy     :     0.004787
  9 O s       :     3.878060  s :     3.878060
      pz      :     1.597514  p :     4.726865
      px      :     1.425224
      py      :     1.704127
      dz2     :     0.010549  d :     0.060907
      dxz     :     0.013761
      dyz     :     0.014058
      dx2y2   :     0.011304
      dxy     :     0.011235
 10 O s       :     3.821513  s :     3.821513
      pz      :     1.643333  p :     4.740688
      px      :     1.567537
      py      :     1.529818
      dz2     :     0.007229  d :     0.055373
      dxz     :     0.013998
      dyz     :     0.008687
      dx2y2   :     0.014735
      dxy     :     0.010724
 11 H s       :     0.545078  s :     0.545078
 12 S s       :     5.136619  s :     5.136619
      pz      :     2.957160  p :     8.855751
      px      :     2.932830
      py      :     2.965761
      dz2     :     0.147712  d :     0.885228
      dxz     :     0.192246
      dyz     :     0.193878
      dx2y2   :     0.168070
      dxy     :     0.183322
 13 O s       :     3.856044  s :     3.856044
      pz      :     1.544738  p :     4.641965
      px      :     1.647637
      py      :     1.449590
      dz2     :     0.004371  d :     0.036548
      dxz     :     0.007912
      dyz     :     0.011743
      dx2y2   :     0.006295
      dxy     :     0.006227
 14 O s       :     3.841910  s :     3.841910
      pz      :     1.534166  p :     4.640598
      px      :     1.421578
      py      :     1.684855
      dz2     :     0.003819  d :     0.032871
      dxz     :     0.011313
      dyz     :     0.002959
      dx2y2   :     0.007841
      dxy     :     0.006938
 15 O s       :     3.836071  s :     3.836071
      pz      :     1.663524  p :     4.795866
      px      :     1.494902
      py      :     1.637440
      dz2     :     0.015234  d :     0.083442
      dxz     :     0.014421
      dyz     :     0.019802
      dx2y2   :     0.020107
      dxy     :     0.013878
 16 O s       :     3.837490  s :     3.837490
      pz      :     1.618348  p :     4.800935
      px      :     1.568902
      py      :     1.613685
      dz2     :     0.008005  d :     0.058957
      dxz     :     0.009115
      dyz     :     0.015755
      dx2y2   :     0.012914
      dxy     :     0.013168
 17 H s       :     0.541940  s :     0.541940
 18 S s       :     5.083234  s :     5.083234
      pz      :     2.923369  p :     8.817997
      px      :     2.970327
      py      :     2.924301
      dz2     :     0.143987  d :     0.884606
      dxz     :     0.199344
      dyz     :     0.196582
      dx2y2   :     0.166497
      dxy     :     0.178196
 19 O s       :     3.877378  s :     3.877378
      pz      :     1.578991  p :     4.733201
      px      :     1.501133
      py      :     1.653077
      dz2     :     0.006645  d :     0.046779
      dxz     :     0.010131
      dyz     :     0.011564
      dx2y2   :     0.007767
      dxy     :     0.010672
 20 O s       :     3.865777  s :     3.865777
      pz      :     1.589201  p :     4.701495
      px      :     1.435321
      py      :     1.676974
      dz2     :     0.001530  d :     0.036588
      dxz     :     0.012503
      dyz     :     0.006766
      dx2y2   :     0.008154
      dxy     :     0.007635
 21 O s       :     3.866154  s :     3.866154
      pz      :     1.565497  p :     4.696216
      px      :     1.674529
      py      :     1.456190
      dz2     :     0.005423  d :     0.044371
      dxz     :     0.009577
      dyz     :     0.010236
      dx2y2   :     0.008731
      dxy     :     0.010405
 22 O s       :     3.822165  s :     3.822165
      pz      :     1.590734  p :     4.732157
      px      :     1.755596
      py      :     1.385827
      dz2     :     0.011559  d :     0.055814
      dxz     :     0.010408
      dyz     :     0.020616
      dx2y2   :     0.005673
      dxy     :     0.007558
 23 H s       :     0.547251  s :     0.547251
 24 N s       :     3.506665  s :     3.506665
      pz      :     1.419225  p :     4.211470
      px      :     1.364934
      py      :     1.427311
      dz2     :     0.007208  d :     0.031026
      dxz     :     0.003696
      dyz     :     0.007832
      dx2y2   :     0.005189
      dxy     :     0.007101
 25 H s       :     0.616550  s :     0.616550
 26 H s       :     0.598062  s :     0.598062
 27 H s       :     0.614401  s :     0.614401
 28 H s       :     0.591746  s :     0.591746
 29 N s       :     3.498817  s :     3.498817
      pz      :     1.407301  p :     4.251993
      px      :     1.369140
      py      :     1.475552
      dz2     :     0.005401  d :     0.030674
      dxz     :     0.008223
      dyz     :     0.004798
      dx2y2   :     0.009315
      dxy     :     0.002937
 30 H s       :     0.608855  s :     0.608855
 31 H s       :     0.605260  s :     0.605260
 32 H s       :     0.615213  s :     0.615213
 33 H s       :     0.527547  s :     0.527547
 34 N s       :     3.502573  s :     3.502573
      pz      :     1.420675  p :     4.278191
      px      :     1.364925
      py      :     1.492591
      dz2     :     0.002928  d :     0.030744
      dxz     :     0.010225
      dyz     :     0.006187
      dx2y2   :     0.007742
      dxy     :     0.003662
 35 H s       :     0.496223  s :     0.496223
 36 H s       :     0.622427  s :     0.622427
 37 H s       :     0.591458  s :     0.591458
 38 H s       :     0.620545  s :     0.620545
 39 N s       :     3.509216  s :     3.509216
      pz      :     1.422509  p :     4.216563
      px      :     1.368787
      py      :     1.425267
      dz2     :     0.005460  d :     0.030957
      dxz     :     0.007933
      dyz     :     0.005736
      dx2y2   :     0.005807
      dxy     :     0.006020
 40 H s       :     0.597185  s :     0.597185
 41 H s       :     0.615453  s :     0.615453
 42 H s       :     0.597431  s :     0.597431
 43 H s       :     0.602224  s :     0.602224


                     *******************************
                     * LOEWDIN POPULATION ANALYSIS *
                     *******************************

----------------------
LOEWDIN ATOMIC CHARGES
----------------------
   0 S :    1.865091
   1 O :   -0.748501
   2 O :   -0.751177
   3 O :   -0.938882
   4 O :   -0.750298
   5 H :    0.365301
   6 S :    1.868043
   7 O :   -0.824642
   8 O :   -0.804726
   9 O :   -0.835219
  10 O :   -0.682794
  11 H :    0.366939
  12 S :    1.869894
  13 O :   -0.758743
  14 O :   -0.743969
  15 O :   -0.943375
  16 O :   -0.741743
  17 H :    0.364232
  18 S :    1.867975
  19 O :   -0.850647
  20 O :   -0.825629
  21 O :   -0.797616
  22 O :   -0.680045
  23 H :    0.366649
  24 N :   -0.368066
  25 H :    0.308312
  26 H :    0.324228
  27 H :    0.337483
  28 H :    0.342792
  29 N :   -0.385096
  30 H :    0.320501
  31 H :    0.329515
  32 H :    0.307698
  33 H :    0.352116
  34 N :   -0.380556
  35 H :    0.355735
  36 H :    0.301178
  37 H :    0.338120
  38 H :    0.314573
  39 N :   -0.368135
  40 H :    0.325146
  41 H :    0.308853
  42 H :    0.339294
  43 H :    0.340191

-------------------------------
LOEWDIN REDUCED ORBITAL CHARGES
-------------------------------
  0 S s       :     4.618684  s :     4.618684
      pz      :     2.819361  p :     8.485098
      px      :     2.841554
      py      :     2.824183
      dz2     :     0.159878  d :     1.031127
      dxz     :     0.215760
      dyz     :     0.236421
      dx2y2   :     0.219691
      dxy     :     0.199376
  1 O s       :     3.668795  s :     3.668795
      pz      :     1.565360  p :     4.789948
      px      :     1.593543
      py      :     1.631045
      dz2     :     0.058527  d :     0.289758
      dxz     :     0.070358
      dyz     :     0.060448
      dx2y2   :     0.051138
      dxy     :     0.049287
  2 O s       :     3.668549  s :     3.668549
      pz      :     1.622714  p :     4.792362
      px      :     1.667026
      py      :     1.502621
      dz2     :     0.041273  d :     0.290266
      dxz     :     0.045169
      dyz     :     0.074164
      dx2y2   :     0.060753
      dxy     :     0.068906
  3 O s       :     3.635610  s :     3.635610
      pz      :     1.654254  p :     4.801456
      px      :     1.468479
      py      :     1.678723
      dz2     :     0.089888  d :     0.501816
      dxz     :     0.099645
      dyz     :     0.081916
      dx2y2   :     0.118238
      dxy     :     0.112129
  4 O s       :     3.624121  s :     3.624121
      pz      :     1.601403  p :     4.827593
      px      :     1.565707
      py      :     1.660483
      dz2     :     0.055331  d :     0.298583
      dxz     :     0.071287
      dyz     :     0.058234
      dx2y2   :     0.062101
      dxy     :     0.051630
  5 H s       :     0.634699  s :     0.634699
  6 S s       :     4.617384  s :     4.617384
      pz      :     2.837411  p :     8.482158
[...]
      dxz     :     0.082590
      dyz     :     0.066314
      dx2y2   :     0.057265
      dxy     :     0.085973
 10 O s       :     3.615526  s :     3.615526
      pz      :     1.646080  p :     4.792010
      px      :     1.575690
      py      :     1.570240
      dz2     :     0.031003  d :     0.275258
      dxz     :     0.057179
      dyz     :     0.063759
      dx2y2   :     0.066040
      dxy     :     0.057277
 11 H s       :     0.633061  s :     0.633061
 12 S s       :     4.617758  s :     4.617758
      pz      :     2.824971  p :     8.482473
      px      :     2.835840
      py      :     2.821662
      dz2     :     0.156388  d :     1.029875
      dxz     :     0.232451
      dyz     :     0.237476
      dx2y2   :     0.189878
      dxy     :     0.213682
 13 O s       :     3.667658  s :     3.667658
      pz      :     1.596578  p :     4.798739
      px      :     1.650949
      py      :     1.551211
      dz2     :     0.047034  d :     0.292346
      dxz     :     0.056670
      dyz     :     0.069803
      dx2y2   :     0.066242
      dxy     :     0.052596
 14 O s       :     3.669043  s :     3.669043
      pz      :     1.581664  p :     4.788361
      px      :     1.529231
      py      :     1.677467
      dz2     :     0.054714  d :     0.286564
      dxz     :     0.074920
      dyz     :     0.052875
      dx2y2   :     0.050834
      dxy     :     0.053222
 15 O s       :     3.633467  s :     3.633467
      pz      :     1.635841  p :     4.805175
      px      :     1.552025
      py      :     1.617309
      dz2     :     0.091674  d :     0.504732
      dxz     :     0.093337
      dyz     :     0.098690
      dx2y2   :     0.109033
      dxy     :     0.111998
 16 O s       :     3.624545  s :     3.624545
      pz      :     1.627982  p :     4.817956
      px      :     1.564120
      py      :     1.625854
      dz2     :     0.046438  d :     0.299242
      dxz     :     0.065620
      dyz     :     0.065924
      dx2y2   :     0.056939
      dxy     :     0.064320
 17 H s       :     0.635768  s :     0.635768
 18 S s       :     4.616988  s :     4.616988
      pz      :     2.827110  p :     8.481613
      px      :     2.839690
      py      :     2.814813
      dz2     :     0.152342  d :     1.033424
      dxz     :     0.242363
      dyz     :     0.242048
      dx2y2   :     0.187565
      dxy     :     0.209106
 19 O s       :     3.663902  s :     3.663902
      pz      :     1.611698  p :     4.831333
      px      :     1.571349
      py      :     1.648286
      dz2     :     0.071760  d :     0.355412
      dxz     :     0.079966
      dyz     :     0.066084
      dx2y2   :     0.057302
      dxy     :     0.080300
 20 O s       :     3.663790  s :     3.663790
      pz      :     1.612327  p :     4.810304
      px      :     1.541562
      py      :     1.656415
      dz2     :     0.063976  d :     0.351535
      dxz     :     0.081156
      dyz     :     0.066031
      dx2y2   :     0.077384
      dxy     :     0.062986
 21 O s       :     3.655075  s :     3.655075
      pz      :     1.599091  p :     4.784011
      px      :     1.658213
      py      :     1.526707
      dz2     :     0.055631  d :     0.358530
      dxz     :     0.065290
      dyz     :     0.079539
      dx2y2   :     0.077941
      dxy     :     0.080129
 22 O s       :     3.616349  s :     3.616349
      pz      :     1.608315  p :     4.788068
      px      :     1.748046
      py      :     1.431708
      dz2     :     0.047865  d :     0.275628
      dxz     :     0.056315
      dyz     :     0.073478
      dx2y2   :     0.044844
      dxy     :     0.053125
 23 H s       :     0.633351  s :     0.633351
 24 N s       :     3.235260  s :     3.235260
      pz      :     1.372213  p :     4.092605
      px      :     1.337961
      py      :     1.382431
      dz2     :     0.009774  d :     0.040201
      dxz     :     0.004758
      dyz     :     0.009808
      dx2y2   :     0.006754
      dxy     :     0.009107
 25 H s       :     0.691688  s :     0.691688
 26 H s       :     0.675772  s :     0.675772
 27 H s       :     0.662517  s :     0.662517
 28 H s       :     0.657208  s :     0.657208
 29 N s       :     3.235305  s :     3.235305
      pz      :     1.368323  p :     4.109750
      px      :     1.327123
      py      :     1.414303
      dz2     :     0.007011  d :     0.040041
      dxz     :     0.010823
      dyz     :     0.006143
      dx2y2   :     0.011977
      dxy     :     0.004088
 30 H s       :     0.679499  s :     0.679499
 31 H s       :     0.670485  s :     0.670485
 32 H s       :     0.692302  s :     0.692302
 33 H s       :     0.647884  s :     0.647884
 34 N s       :     3.234180  s :     3.234180
      pz      :     1.368049  p :     4.105913
      px      :     1.319625
      py      :     1.418239
      dz2     :     0.003875  d :     0.040463
      dxz     :     0.013828
      dyz     :     0.007897
      dx2y2   :     0.009869
      dxy     :     0.004993
 35 H s       :     0.644265  s :     0.644265
 36 H s       :     0.698822  s :     0.698822
 37 H s       :     0.661880  s :     0.661880
 38 H s       :     0.685427  s :     0.685427
 39 N s       :     3.235043  s :     3.235043
      pz      :     1.374282  p :     4.092986
      px      :     1.336446
      py      :     1.382257
      dz2     :     0.007412  d :     0.040107
      dxz     :     0.010233
      dyz     :     0.007148
      dx2y2   :     0.007446
      dxy     :     0.007868
 40 H s       :     0.674854  s :     0.674854
 41 H s       :     0.691147  s :     0.691147
 42 H s       :     0.660706  s :     0.660706
 43 H s       :     0.659809  s :     0.659809


                      *****************************
                      * MAYER POPULATION ANALYSIS *
                      *****************************

  NA   - Mulliken gross atomic population
  ZA   - Total nuclear charge
  QA   - Mulliken gross atomic charge
  VA   - Mayer's total valence
  BVA  - Mayer's bonded valence
  FA   - Mayer's free valence

  ATOM       NA         ZA         QA         VA         BVA        FA
  0 S     14.9097    16.0000     1.0903     5.7517     5.7517    -0.0000
  1 O      8.5087     8.0000    -0.5087     1.9002     1.9002     0.0000
  2 O      8.5157     8.0000    -0.5157     1.8926     1.8926     0.0000
  3 O      8.7028     8.0000    -0.7028     1.7573     1.7573     0.0000
  4 O      8.7003     8.0000    -0.7003     1.8693     1.8693    -0.0000
  5 H      0.5398     1.0000     0.4602     0.7727     0.7727     0.0000
  6 S     14.7890    16.0000     1.2110     5.6295     5.6295     0.0000
  7 O      8.5988     8.0000    -0.5988     1.7728     1.7728     0.0000
  8 O      8.5939     8.0000    -0.5939     1.8160     1.8160    -0.0000
  9 O      8.6658     8.0000    -0.6658     1.8614     1.8614     0.0000
 10 O      8.6176     8.0000    -0.6176     1.9145     1.9145    -0.0000
 11 H      0.5451     1.0000     0.4549     0.7796     0.7796     0.0000
 12 S     14.8776    16.0000     1.1224     5.7379     5.7379    -0.0000
 13 O      8.5346     8.0000    -0.5346     1.9002     1.9002    -0.0000
 14 O      8.5154     8.0000    -0.5154     1.9072     1.9072     0.0000
 15 O      8.7154     8.0000    -0.7154     1.7749     1.7749    -0.0000
 16 O      8.6974     8.0000    -0.6974     1.8451     1.8451    -0.0000
 17 H      0.5419     1.0000     0.4581     0.7756     0.7756    -0.0000
 18 S     14.7858    16.0000     1.2142     5.6173     5.6173    -0.0000
 19 O      8.6574     8.0000    -0.6574     1.7700     1.7700     0.0000
 20 O      8.6039     8.0000    -0.6039     1.7714     1.7714     0.0000
 21 O      8.6067     8.0000    -0.6067     1.8678     1.8678    -0.0000
 22 O      8.6101     8.0000    -0.6101     1.9188     1.9188    -0.0000
 23 H      0.5473     1.0000     0.4527     0.7813     0.7813     0.0000
 24 N      7.7492     7.0000    -0.7492     3.0957     3.0957     0.0000
 25 H      0.6165     1.0000     0.3835     0.8458     0.8458     0.0000
 26 H      0.5981     1.0000     0.4019     0.8526     0.8526     0.0000
 27 H      0.6144     1.0000     0.3856     0.8875     0.8875     0.0000
 28 H      0.5917     1.0000     0.4083     0.8560     0.8560    -0.0000
 29 N      7.7815     7.0000    -0.7815     3.1215     3.1215     0.0000
 30 H      0.6089     1.0000     0.3911     0.8642     0.8642    -0.0000
 31 H      0.6053     1.0000     0.3947     0.8604     0.8604    -0.0000
 32 H      0.6152     1.0000     0.3848     0.8537     0.8537     0.0000
 33 H      0.5275     1.0000     0.4725     0.7566     0.7566    -0.0000
 34 N      7.8115     7.0000    -0.8115     3.1489     3.1489     0.0000
 35 H      0.4962     1.0000     0.5038     0.7100     0.7100     0.0000
 36 H      0.6224     1.0000     0.3776     0.8558     0.8558    -0.0000
 37 H      0.5915     1.0000     0.4085     0.8559     0.8559    -0.0000
 38 H      0.6205     1.0000     0.3795     0.8762     0.8762     0.0000
 39 N      7.7567     7.0000    -0.7567     3.1017     3.1017    -0.0000
 40 H      0.5972     1.0000     0.4028     0.8543     0.8543    -0.0000
 41 H      0.6155     1.0000     0.3845     0.8436     0.8436    -0.0000
 42 H      0.5974     1.0000     0.4026     0.8620     0.8620    -0.0000
 43 H      0.6022     1.0000     0.3978     0.8714     0.8714    -0.0000

  Mayer bond orders larger than 0.100000
B(  0-S ,  1-O ) :   1.7111 B(  0-S ,  2-O ) :   1.7366 B(  0-S ,  3-O ) :   1.4062 
B(  0-S ,  4-O ) :   0.9108 B(  4-O ,  5-H ) :   0.7295 B(  6-S ,  7-O ) :   1.5127 
B(  6-S ,  8-O ) :   1.6073 B(  6-S ,  9-O ) :   1.4486 B(  6-S , 10-O ) :   1.0703 
B(  7-O , 28-H ) :   0.1083 B(  9-O , 37-H ) :   0.1379 B(  9-O , 43-H ) :   0.1087 
B( 10-O , 11-H ) :   0.7329 B( 12-S , 13-O ) :   1.6807 B( 12-S , 14-O ) :   1.7149 
B( 12-S , 15-O ) :   1.4109 B( 12-S , 16-O ) :   0.9311 B( 16-O , 17-H ) :   0.7329 
B( 18-S , 19-O ) :   1.4108 B( 18-S , 20-O ) :   1.5108 B( 18-S , 21-O ) :   1.6230 
B( 18-S , 22-O ) :   1.0871 B( 19-O , 27-H ) :   0.1204 B( 19-O , 31-H ) :   0.1121 
B( 20-O , 42-H ) :   0.1100 B( 22-O , 23-H ) :   0.7333 B( 24-N , 25-H ) :   0.8203 
B( 24-N , 26-H ) :   0.7805 B( 24-N , 27-H ) :   0.7402 B( 24-N , 28-H ) :   0.7364 
B( 29-N , 30-H ) :   0.7640 B( 29-N , 31-H ) :   0.7373 B( 29-N , 32-H ) :   0.8082 
B( 29-N , 33-H ) :   0.7693 B( 34-N , 35-H ) :   0.7457 B( 34-N , 36-H ) :   0.8182 
B( 34-N , 37-H ) :   0.7115 B( 34-N , 38-H ) :   0.7879 B( 39-N , 40-H ) :   0.7759 
B( 39-N , 41-H ) :   0.8217 B( 39-N , 42-H ) :   0.7327 B( 39-N , 43-H ) :   0.7447 


-------
TIMINGS
-------

Total SCF time: 0 days 0 hours 3 min 7 sec 

Total time                  ....     187.423 sec
Sum of individual times     ....     185.697 sec  ( 99.1%)

Fock matrix formation       ....     174.985 sec  ( 93.4%)
  Split-RI-J                ....      51.476 sec  ( 29.4% of F)
  XC integration            ....     123.339 sec  ( 70.5% of F)
    Basis function eval.    ....      26.068 sec  ( 21.1% of XC)
    Density eval.           ....      58.418 sec  ( 47.4% of XC)
    XC-Functional eval.     ....       4.022 sec  (  3.3% of XC)
    XC-Potential eval.      ....      31.252 sec  ( 25.3% of XC)
Diagonalization             ....       2.571 sec  (  1.4%)
Density matrix formation    ....       0.161 sec  (  0.1%)
Population analysis         ....       0.201 sec  (  0.1%)
Initial guess               ....       0.319 sec  (  0.2%)
Orbital Transformation      ....       0.000 sec  (  0.0%)
Orbital Orthonormalization  ....       0.000 sec  (  0.0%)
DIIS solution               ....       1.059 sec  (  0.6%)
SOSCF solution              ....       1.512 sec  (  0.8%)
Grid generation             ....       4.890 sec  (  2.6%)

Maximum memory used throughout the entire SCF-calculation: 306.5 MB


-------------------------------------------------------------------------------
                          DFT DISPERSION CORRECTION                            
                                                                               
                              DFTD3 V3.1  Rev 1                                
                          USING Becke-Johnson damping                          
-------------------------------------------------------------------------------
The B97-3c composite method is recognized
Using three-body term ABC
Active option DFTDOPT                   ...         4   

molecular C6(AA) [au] = 22567.394027 


            DFT-D V3
 parameters
 s6 scaling factor         :     1.0000 
 a1 scaling factor         :     0.3700 
 s8 scaling factor         :     1.5000 
 a2 scaling factor         :     4.1000 
 Damping factor alpha9(ATM):    16.0000 
 ad hoc parameters k1-k3   :    16.0000     1.3333    -4.0000 

 Edisp/kcal,au: -82.323622685057  -0.131191029468 
 E6   /kcal   : -43.719697942 
 E8   /kcal   : -39.475951030 
 E6(ABC)      :   0.872026287 
 % E8         :  47.952154852 
 % E6(ABC)    :  -1.059266172 

-------------------------   ----------------
Dispersion correction           -0.131191029
-------------------------   ----------------

------------------   -----------------
SRB correction            -0.142947643
------------------   -----------------

-------------------------   --------------------
FINAL SINGLE POINT ENERGY     -3026.626485294094
-------------------------   --------------------

------------------------------------------------------------------------------
                         ORCA SCF GRADIENT CALCULATION
------------------------------------------------------------------------------

Gradient of the Kohn-Sham DFT energy:
Kohn-Sham wavefunction type      ... RKS
Hartree-Fock exchange scaling    ...    0.000
Number of operators              ...    1
Number of atoms                  ...   44
Basis set dimensions             ...  608
Integral neglect threshold       ... 2.5e-11
Integral primitive cutoff        ... 2.5e-12
SHARK Integral package           ... ON

Nuc. rep. gradient       (SHARK) ... done (  0.0 sec)
HCore & Overlap gradient (SHARK) ... done (  4.7 sec)
RI-J gradient            (SHARK) ... done ( 11.8 sec)
Exchange-correlation gradient    ... done
Dispersion correction            ... done
SRB correction                   ... done

------------------
CARTESIAN GRADIENT
------------------

   1   S   :    0.008159022    0.002887504    0.007270030
   2   O   :    0.030538452    0.025108862   -0.026482963
   3   O   :    0.018079597   -0.034995317    0.025313533
   4   O   :   -0.036361602   -0.004527494   -0.011242079
   5   O   :   -0.008469496    0.011257087    0.010628777
   6   H   :    0.001761780    0.002142783    0.002654559
   7   S   :   -0.015670962    0.002169880   -0.015976054
   8   O   :   -0.032909943   -0.014932039    0.024540972
   9   O   :    0.009722507   -0.020138925   -0.036729171
  10   O   :    0.036034252    0.022150112    0.024830003
  11   O   :   -0.001404533    0.023474692   -0.001608505
  12   H   :   -0.002636437   -0.002803090   -0.002271696
  13   S   :   -0.009399056    0.004152991    0.005917903
  14   O   :    0.017579344   -0.034578516    0.030570344
  15   O   :   -0.038746202   -0.011690709   -0.024508970
  16   O   :    0.026206165    0.024372715   -0.013843742
  17   O   :   -0.003506352    0.014015669    0.009625381
  18   H   :   -0.002904526   -0.000546094    0.002145202
  19   S   :    0.009381082   -0.007153858   -0.009596381
  20   O   :   -0.031990567   -0.024702719    0.025264253
  21   O   :    0.037556463    0.010584503    0.022293737
  22   O   :   -0.014590579    0.025996277   -0.032137176
  23   O   :    0.004002195   -0.009923404   -0.019072229
  24   H   :    0.001561299   -0.002815737    0.003200539
  25   N   :   -0.003778025   -0.000985729   -0.005172462
  26   H   :   -0.001375689   -0.000575465    0.000339076
  27   H   :    0.000269501   -0.000095769    0.000099933
  28   H   :   -0.000981778   -0.002060560   -0.001454102
  29   H   :   -0.002148067    0.001613818   -0.000067231
  30   N   :    0.003871835   -0.004263797    0.003173877
  31   H   :   -0.002396525   -0.001765136    0.002411260
  32   H   :   -0.002097716   -0.002116805   -0.000993550
  33   H   :    0.000728887   -0.000053289    0.000712457
  34   H   :   -0.000518849    0.000948988    0.000588111
  35   N   :   -0.001617772    0.001835183    0.004786303
  36   H   :    0.000586802   -0.001896265   -0.000552462
  37   H   :   -0.000477574    0.001510567    0.001494300
  38   H   :    0.001964168    0.003204022   -0.001265196
  39   H   :   -0.000274267    0.001795454    0.002338439
  40   N   :    0.002523170    0.002758749   -0.004795620
  41   H   :   -0.000276493   -0.000126652   -0.000072135
  42   H   :    0.001188505    0.000813699    0.000102710
  43   H   :    0.001754017   -0.001785712   -0.001595010
  44   H   :    0.001063966    0.001739528   -0.000864964

Difference to translation invariance:
           :    0.0000000000   -0.0000000000   -0.0000000000

Difference to rotation invariance:
           :   -0.0001730959    0.0007274390    0.0005361710

Norm of the cartesian gradient     ...    0.1655811706
RMS gradient                       ...    0.0144119910
MAX gradient                       ...    0.0387462017

-------
TIMINGS
-------

Total SCF gradient time            ...       85.048 sec

One electron gradient       ....       4.702 sec  (  5.5%)
RI-J Coulomb gradient       ....      11.776 sec  ( 13.8%)
XC gradient                 ....      68.109 sec  ( 80.1%)

Maximum memory used throughout the entire SCFGRAD-calculation: 280.0 MB

                            ***************************************
                            *     ORCA property calculations      *
                            ***************************************

                                    ---------------------
                                    Active property flags
                                    ---------------------
   (+) Dipole Moment


------------------------------------------------------------------------------
                       ORCA ELECTRIC PROPERTIES CALCULATION
------------------------------------------------------------------------------

Dipole Moment Calculation                       ... on
Quadrupole Moment Calculation                   ... off
Polarizability Calculation                      ... off
GBWName                                         ... 4sa4am-44_1_996.gbw
Electron density                                ... 4sa4am-44_1_996.scfp
The origin for moment calculation is the CENTER OF MASS  = (-0.055688,  0.069342  0.068514)

-------------
DIPOLE MOMENT
-------------
                                X             Y             Z
Electronic contribution:     -0.53853       0.85235       1.29079
Nuclear contribution   :      1.22105      -1.44116      -1.50783
                        -----------------------------------------
Total Dipole Moment    :      0.68252      -0.58881      -0.21704
                        -----------------------------------------
Magnitude (a.u.)       :      0.92716
Magnitude (Debye)      :      2.35666



--------------------
Rotational spectrum 
--------------------
 
Rotational constants in cm-1:     0.005334     0.005220     0.004975 
Rotational constants in MHz :   159.917366   156.482467   149.156837 

 Dipole components along the rotational axes: 
x,y,z [a.u.] :    -0.899620    -0.182559    -0.130341 
x,y,z [Debye]:    -2.286653    -0.464028    -0.331299 

 

Timings for individual modules:

Sum of individual times         ...      274.109 sec (=   4.568 min)
GTO integral calculation        ...        1.496 sec (=   0.025 min)   0.5 %
SCF iterations                  ...      187.501 sec (=   3.125 min)  68.4 %
SCF Gradient evaluation         ...       85.112 sec (=   1.419 min)  31.1 %
                             ****ORCA TERMINATED NORMALLY****
TOTAL RUN TIME: 0 days 0 hours 4 minutes 34 seconds 691 msec
