44
Properties=species:S:1:pos:R:3 energy:=T -113.454331022642=T gnorm:=T 0.000577633279=T xtb:=T 6.4.0=T (d4b70c2)=T pbc="F F F"
S        1.77372983       1.57891732       0.57792386
O        2.43284395       0.75754814       1.57153446
O        0.59743037       0.91575116      -0.00099878
O        1.50242308       2.93473639       0.97966793
O        2.81443854       1.72084696      -0.66074182
H        3.18077205       0.82267228      -0.81930144
S       -1.38695724      -1.42431404       2.76153406
O       -0.58972060      -0.23706267       2.41771258
O       -0.99944697      -2.52987523       1.86092359
O       -1.39756390      -1.77292579       4.13964235
O       -2.90064456      -1.04538565       2.39030663
H       -2.94826099      -0.54125063       1.55694267
S        2.20788546      -1.80607264      -1.78319098
O        1.62795293      -2.69729833      -0.78348492
O        1.16391468      -1.17687796      -2.59576813
O        3.17739474      -0.88226084      -1.25939168
O        3.05333225      -2.73933857      -2.78359361
H        2.49419042      -3.45626418      -3.10247186
S       -2.63837944       1.37194931      -1.05606991
O       -2.81124803       0.51730138       0.11460867
O       -2.24735091       2.72125847      -0.69177075
O       -1.80650415       0.76918485      -2.07885242
O       -4.08051758       1.47938727      -1.76454534
H       -4.68943411       1.94402367      -1.18006624
N        1.72326280      -1.83624919       1.82192720
H        0.76121220      -2.11733354       2.03806688
H        1.94222901      -2.17176983       0.87761078
H        1.78453794      -0.80395851       1.81460289
H        2.36916776      -2.20996341       2.49997491
N       -1.07632748       2.32489712       1.79431310
H       -0.97149609       1.30526948       1.95813332
H       -1.57675274       2.74775689       2.55984735
H       -0.13446937       2.71308316       1.69331129
H       -1.56724109       2.46275939       0.90383799
N        0.76290566       1.49499366      -2.60893159
H       -0.19354032       1.53260483      -2.23705399
H        1.00369040       0.48828348      -2.65165740
H        0.80785730       1.91341591      -3.52480420
H        1.40849290       1.93440074      -1.95315278
N       -0.92232935      -1.41348026      -0.57074406
H       -1.03380319      -1.95853368       0.30486960
H       -0.34978933      -1.91433002      -1.24028587
H       -1.82339166      -1.17391301      -0.96500767
H       -0.44449512      -0.54258391      -0.32540663
