44
Properties=species:S:1:pos:R:3 energy:=T -113.449143281698=T gnorm:=T 0.000883851010=T xtb:=T 6.4.0=T (d4b70c2)=T pbc="F F F"
S        3.51301861      -2.20193230      -1.03567629
O        3.80311647      -0.84133983      -0.61670122
O        3.06033224      -3.06577058       0.03007609
O        2.64289762      -2.23810175      -2.21324014
O        4.89546119      -2.82345231      -1.58840588
H        5.49454118      -2.94064843      -0.84288837
S       -3.68287084       1.64462966       1.41213467
O       -3.51421119       1.78933344      -0.02366556
O       -3.90760673       0.28572538       1.84784281
O       -2.61834137       2.31866461       2.15881321
O       -4.99717201       2.48972111       1.81385407
H       -5.76867295       2.04119887       1.45047870
S        1.55073358       0.64034162       1.25455330
O        0.99311856      -0.71287916       1.17935445
O        1.54724777       1.32154704      -0.04432024
O        0.92690507       1.43681426       2.28835661
O        3.07240966       0.47265305       1.66467371
H        3.49892043      -0.05027237       0.94601734
S       -1.44626334      -0.29755688      -1.48610509
O       -1.46797132      -0.84517543      -0.12690009
O       -0.82995119       1.03201358      -1.54549842
O       -0.85862431      -1.21277642      -2.43969482
O       -2.96044735      -0.10528765      -1.91283230
H       -3.35056377       0.53706079      -1.27484594
N        1.68493926       0.24209647      -2.49461652
H        2.16121760       0.89595590      -3.09473665
H        0.72401580       0.09305617      -2.78997591
H        2.17257409      -0.67030377      -2.47598401
H        1.66135079       0.60926337      -1.52166816
N       -0.72461175       2.90888286       0.36614786
H       -0.72700821       3.80990522      -0.08404104
H       -0.81797212       2.15797474      -0.34758663
H        0.14093887       2.74499874       0.87289052
H       -1.51772110       2.81898027       1.02455876
N        0.47368830      -2.75057832      -0.54781559
H        0.69573282      -1.93333364       0.04775748
H        0.82063404      -3.58034052      -0.08658184
H       -0.52480280      -2.76208784      -0.71743651
H        0.98030015      -2.62857112      -1.42630375
N       -1.35353148      -0.13633557       2.49790502
H       -2.10794334      -0.64351462       2.93977076
H       -0.43422354      -0.38463723       2.84302419
H       -1.38568782      -0.33052541       1.48146214
H       -1.51789560       0.86460397       2.61784928
