44
Properties=species:S:1:pos:R:3 energy:=T -113.461522514377=T gnorm:=T 0.000619003196=T xtb:=T 6.4.0=T (d4b70c2)=T pbc="F F F"
S        1.28734060      -2.46133990      -1.06931003
O        2.03528117      -2.56729512       0.17357927
O       -0.07385765      -2.97904848      -0.92009740
O        1.32859525      -1.16366514      -1.69903400
O        2.02630197      -3.42779760      -2.12657178
H        2.17033408      -4.28967578      -1.72054879
S       -2.52599374      -0.51122817       0.95797718
O       -1.14433068      -0.38533344       0.45340299
O       -3.39724425      -1.11144535      -0.02554265
O       -2.56246896      -1.08779616       2.27888620
O       -3.02023795       1.01561751       1.15445188
H       -3.06032528       1.40326216       0.25038728
S       -1.22892707       2.38879424      -1.59262772
O       -2.56016630       1.85342297      -1.38202815
O       -0.55911271       2.78897631      -0.36880130
O       -0.39339790       1.54347911      -2.43705263
O       -1.40927616       3.72252249      -2.48369582
H       -2.07661226       4.28423135      -2.07466081
S        2.54697209       0.60646393       1.98347063
O        1.35112925      -0.16293547       2.35052481
O        2.18021790       1.91925080       1.42834575
O        3.55419638       0.65378568       2.98905780
O        3.16182253      -0.15631904       0.69049775
H        2.87526246      -1.09376626       0.65981827
N       -0.11855349      -2.39793054       1.86159235
H       -0.25980024      -2.61332575       0.87074912
H        0.51593369      -1.58444892       1.90611752
H       -1.01427874      -2.11968208       2.26731783
H        0.30351128      -3.18133129       2.33528008
N       -0.46567639       1.73947921       2.02097998
H       -1.18277766       2.42617685       1.83207360
H       -0.61289207       0.94400434       1.37723425
H        0.47163629       2.10511835       1.81508731
H       -0.50302084       1.39009054       2.96726343
N        2.07282942       1.47481777      -1.24081727
H        1.15424740       1.62118131      -1.67844033
H        2.26055849       0.47237527      -1.25424433
H        2.79663885       1.97812805      -1.72883274
H        2.04355022       1.76461630      -0.24726591
N       -1.59952078      -0.96386688      -2.13111153
H       -1.85035587      -1.23586422      -3.06851202
H       -1.04425952      -1.69573039      -1.67307654
H       -1.04346894      -0.10253526      -2.14820130
H       -2.42980389      -0.80343328      -1.55362221
