44
Properties=species:S:1:pos:R:3 energy:=T -113.459256523146=T gnorm:=T 0.000696135350=T xtb:=T 6.4.0=T (d4b70c2)=T pbc="F F F"
S       -2.59400322      -0.72721450      -1.47025055
O       -3.50555015      -1.39828221      -0.58082194
O       -3.11507605       0.42462551      -2.16108013
O       -1.28377482      -0.47999376      -0.87076122
O       -2.19950645      -1.82513406      -2.64081776
H       -3.02993454      -2.11494967      -3.03530577
S        1.14963679      -2.42219780       1.36091143
O        2.16887584      -1.81479162       0.51708527
O        0.81927701      -1.60451970       2.51237030
O       -0.00769667      -2.87778243       0.61068731
O        1.78181801      -3.79411654       1.93367366
H        2.49556662      -3.57809808       2.54309781
S        2.20171037       1.34934665      -1.65351813
O        1.68942123       2.39482569      -2.50506447
O        3.32384195       1.70325915      -0.82468068
O        1.14393046       0.65439075      -0.92175252
O        2.72318342       0.15033515      -2.65686236
H        3.50360162       0.48790463      -3.11058809
S       -0.95273835       2.12581949       1.98492693
O        0.05968226       2.80328442       1.17714556
O       -2.09328125       1.71535898       1.17960311
O       -0.41974320       1.08061750       2.82323729
O       -1.50074988       3.22291689       3.03448595
H       -1.86939478       3.96821419       2.54835370
N        2.06815813       0.81084212       1.56846207
H        2.99575559       1.20626222       1.62185781
H        1.69629959       0.52157802       2.46841238
H        1.42944136       1.50378999       1.16752206
H        2.08433077      -0.00753716       0.94999391
N       -0.98525878       2.18570375      -1.37162048
H       -0.30024330       2.36362279      -2.10111331
H       -0.68809998       2.65348431      -0.51354455
H       -1.92679821       2.43996433      -1.63746401
H       -0.98722224       1.17355677      -1.16104395
N        0.71101157      -1.83643494      -1.86024817
H        0.86647922      -0.87638001      -1.50249760
H        1.58098200      -2.17444734      -2.24359268
H        0.41786447      -2.39045354      -1.04873419
H       -0.04414222      -1.81332640      -2.53472254
N       -1.89191021      -1.04799638       1.69464338
H       -1.33065880      -0.94936270       2.53626776
H       -2.78335691      -1.49300144       1.85745252
H       -2.04463737      -0.11434555       1.29724237
H       -1.35709091      -1.59933747       1.01865251
