44
Properties=species:S:1:pos:R:3 energy:=T -113.451757899950=T gnorm:=T 0.000909123229=T xtb:=T 6.4.0=T (d4b70c2)=T pbc="F F F"
S        3.19327729      -2.95147534      -0.34679220
O        3.69353145      -1.58874142      -0.34434555
O        2.85991043      -3.46240263       0.96718207
O        2.12282063      -3.15121279      -1.32056084
O        4.38496193      -3.87862305      -0.91603524
H        5.10285677      -3.87648766      -0.27308721
S       -3.19325397       2.95144345       0.34672304
O       -2.86006248       3.46222237      -0.96745947
O       -3.69352451       1.58864177       0.34452706
O       -2.12263993       3.15138402       1.32038035
O       -4.38489958       3.87860955       0.91604442
H       -5.10290648       3.87633283       0.27315788
S        1.74572254       0.83283313       0.79161378
O        0.99402965      -0.40399360       1.00326906
O        1.79975841       1.20543168      -0.62928801
O        1.26983449       1.91730873       1.62720680
O        3.23143858       0.54330124       1.24520540
H        3.53754235      -0.25826887       0.75415177
S       -1.74577184      -0.83280525      -0.79156256
O       -1.79983761      -1.20542992       0.62933199
O       -0.99407005       0.40402479      -1.00317525
O       -1.26987145      -1.91726172      -1.62716929
O       -3.23148013      -0.54326950      -1.24517534
H       -3.53759749       0.25828031      -0.75409610
N        1.26830625      -0.82747020      -2.30476410
H        1.61949098      -0.56055093      -3.21030594
H        0.26528406      -1.00644765      -2.33008497
H        1.73193052      -1.69369859      -1.97428776
H        1.45173010      -0.07579560      -1.61221764
N       -0.18356523       2.99181178      -0.56927784
H        0.64111278       3.15189072      -1.13055130
H       -0.47529189       2.01144222      -0.69037186
H        0.04350411       3.11409350       0.41430681
H       -0.98095096       3.57431979      -0.82874531
N        0.18363662      -2.99182750       0.56928245
H       -0.64016107      -3.15235474       1.13108502
H        0.98102688      -3.57415332       0.82750515
H       -0.04440557      -3.11380931      -0.41370712
H        0.47538908      -2.01148333       0.69047851
N       -1.26832173       0.82751550       2.30475303
H       -1.61956607       0.56066509       3.21031791
H       -0.26527188       1.00642428       2.33009472
H       -1.45176334       0.07580694       1.61224940
H       -1.73188264       1.69377924       1.97419427
