
                                 *****************
                                 * O   R   C   A *
                                 *****************

                                            #,                                       
                                            ###                                      
                                            ####                                     
                                            #####                                    
                                            ######                                   
                                           ########,                                 
                                     ,,################,,,,,                         
                               ,,#################################,,                 
                          ,,##########################################,,             
                       ,#########################################, ''#####,          
                    ,#############################################,,   '####,        
                  ,##################################################,,,,####,       
                ,###########''''           ''''###############################       
              ,#####''   ,,,,##########,,,,          '''####'''          '####       
            ,##' ,,,,###########################,,,                        '##       
           ' ,,###''''                  '''############,,,                           
         ,,##''                                '''############,,,,        ,,,,,,###''
      ,#''                                            '''#######################'''  
     '                                                          ''''####''''         
             ,#######,   #######,   ,#######,      ##                                
            ,#'     '#,  ##    ##  ,#'     '#,    #''#        ######   ,####,        
            ##       ##  ##   ,#'  ##            #'  '#       #        #'  '#        
            ##       ##  #######   ##           ,######,      #####,   #    #        
            '#,     ,#'  ##    ##  '#,     ,#' ,#      #,         ##   #,  ,#        
             '#######'   ##     ##  '#######'  #'      '#     #####' # '####'        



                  #######################################################
                  #                        -***-                        #
                  #          Department of theory and spectroscopy      #
                  #    Directorship and core code : Frank Neese         #
                  #        Max Planck Institute fuer Kohlenforschung    #
                  #                Kaiser Wilhelm Platz 1               #
                  #                 D-45470 Muelheim/Ruhr               #
                  #                      Germany                        #
                  #                                                     #
                  #                  All rights reserved                #
                  #                        -***-                        #
                  #######################################################


                         Program Version 5.0.3 -  RELEASE  -


 With contributions from (in alphabetic order):
   Daniel Aravena         : Magnetic Suceptibility
   Michael Atanasov       : Ab Initio Ligand Field Theory (pilot matlab implementation)
   Alexander A. Auer      : GIAO ZORA, VPT2 properties, NMR spectrum
   Ute Becker             : Parallelization
   Giovanni Bistoni       : ED, misc. LED, open-shell LED, HFLD
   Martin Brehm           : Molecular dynamics
   Dmytro Bykov           : SCF Hessian
   Vijay G. Chilkuri      : MRCI spin determinant printing, contributions to CSF-ICE
   Dipayan Datta          : RHF DLPNO-CCSD density
   Achintya Kumar Dutta   : EOM-CC, STEOM-CC
   Dmitry Ganyushin       : Spin-Orbit,Spin-Spin,Magnetic field MRCI
   Miquel Garcia          : C-PCM and meta-GGA Hessian, CC/C-PCM, Gaussian charge scheme
   Yang Guo               : DLPNO-NEVPT2, F12-NEVPT2, CIM, IAO-localization
   Andreas Hansen         : Spin unrestricted coupled pair/coupled cluster methods
   Benjamin Helmich-Paris : MC-RPA, TRAH-SCF, COSX integrals
   Lee Huntington         : MR-EOM, pCC
   Robert Izsak           : Overlap fitted RIJCOSX, COSX-SCS-MP3, EOM
   Marcus Kettner         : VPT2
   Christian Kollmar      : KDIIS, OOCD, Brueckner-CCSD(T), CCSD density, CASPT2, CASPT2-K
   Simone Kossmann        : Meta GGA functionals, TD-DFT gradient, OOMP2, MP2 Hessian
   Martin Krupicka        : Initial AUTO-CI
   Lucas Lang             : DCDCAS
   Marvin Lechner         : AUTO-CI (C++ implementation), FIC-MRCC
   Dagmar Lenk            : GEPOL surface, SMD
   Dimitrios Liakos       : Extrapolation schemes; Compound Job, initial MDCI parallelization
   Dimitrios Manganas     : Further ROCIS development; embedding schemes
   Dimitrios Pantazis     : SARC Basis sets
   Anastasios Papadopoulos: AUTO-CI, single reference methods and gradients
   Taras Petrenko         : DFT Hessian,TD-DFT gradient, ASA, ECA, R-Raman, ABS, FL, XAS/XES, NRVS
   Peter Pinski           : DLPNO-MP2, DLPNO-MP2 Gradient
   Christoph Reimann      : Effective Core Potentials
   Marius Retegan         : Local ZFS, SOC
   Christoph Riplinger    : Optimizer, TS searches, QM/MM, DLPNO-CCSD(T), (RO)-DLPNO pert. Triples
   Tobias Risthaus        : Range-separated hybrids, TD-DFT gradient, RPA, STAB
   Michael Roemelt        : Original ROCIS implementation
   Masaaki Saitow         : Open-shell DLPNO-CCSD energy and density
   Barbara Sandhoefer     : DKH picture change effects
   Avijit Sen             : IP-ROCIS
   Kantharuban Sivalingam : CASSCF convergence, NEVPT2, FIC-MRCI
   Bernardo de Souza      : ESD, SOC TD-DFT
   Georgi Stoychev        : AutoAux, RI-MP2 NMR, DLPNO-MP2 response
   Willem Van den Heuvel  : Paramagnetic NMR
   Boris Wezisla          : Elementary symmetry handling
   Frank Wennmohs         : Technical directorship


 We gratefully acknowledge several colleagues who have allowed us to
 interface, adapt or use parts of their codes:
   Stefan Grimme, W. Hujo, H. Kruse, P. Pracht,  : VdW corrections, initial TS optimization,
                  C. Bannwarth, S. Ehlert          DFT functionals, gCP, sTDA/sTD-DF
   Ed Valeev, F. Pavosevic, A. Kumar             : LibInt (2-el integral package), F12 methods
   Garnet Chan, S. Sharma, J. Yang, R. Olivares  : DMRG
   Ulf Ekstrom                                   : XCFun DFT Library
   Mihaly Kallay                                 : mrcc  (arbitrary order and MRCC methods)
   Jiri Pittner, Ondrej Demel                    : Mk-CCSD
   Frank Weinhold                                : gennbo (NPA and NBO analysis)
   Christopher J. Cramer and Donald G. Truhlar   : smd solvation model
   Lars Goerigk                                  : TD-DFT with DH, B97 family of functionals
   V. Asgeirsson, H. Jonsson                     : NEB implementation
   FAccTs GmbH                                   : IRC, NEB, NEB-TS, DLPNO-Multilevel, CI-OPT
                                                   MM, QMMM, 2- and 3-layer-ONIOM, Crystal-QMMM,
                                                   LR-CPCM, SF, NACMEs, symmetry and pop. for TD-DFT,
                                                   nearIR, NL-DFT gradient (VV10), updates on ESD,
                                                   ML-optimized integration grids
   S Lehtola, MJT Oliveira, MAL Marques          : LibXC Library
   Liviu Ungur et al                             : ANISO software


 Your calculation uses the libint2 library for the computation of 2-el integrals
 For citations please refer to: http://libint.valeyev.net

 Your ORCA version has been built with support for libXC version: 5.1.0
 For citations please refer to: https://tddft.org/programs/libxc/

 This ORCA versions uses:
   CBLAS   interface :  Fast vector & matrix operations
   LAPACKE interface :  Fast linear algebra routines
   SCALAPACK package :  Parallel linear algebra routines
   Shared memory     :  Shared parallel matrices
   BLAS/LAPACK       :  OpenBLAS 0.3.15  USE64BITINT DYNAMIC_ARCH NO_AFFINITY Prescott SINGLE_THREADED
        Core in use  :  Prescott
   Copyright (c) 2011-2014, The OpenBLAS Project




***************************************
The coordinates will be read from file: 4sa4am-44_10_537.xyz
***************************************


Your calculation utilizes the atom-pairwise dispersion correction
with the Becke-Johnson damping scheme (D3BJ)
Cite in your paper:
S.Grimme, S.Ehrlich, L.Goerigk, J Comput Chem, (2011), 32, 1456–1465 
S.Grimme, J.Antony, S.Ehrlich and H.Krieg, J.Chem.Phys., 132, (2010), 154104 
   

Your calculation employs the composite approach B97-3c by Grimme and coworkers.
For the correct reference, please check the publication list of the Grimme group:
http://www.thch.uni-bonn.de/tc/index.php?section=publikationen&subsection=grimme#2017
   

XCFun DFT library Copyright 2009-2010 Ulf Ekstrom and contributors.
See http://admol.org/xcfun for more information.
This is free software; see the source code for copying conditions.
There is ABSOLUTELY NO WARRANTY; not even for MERCHANTABILITY or FITNESS FOR A PARTICULAR PURPOSE.
For details see the documentation.
Scientific users of this library should cite U. Ekstrom, L. Visscher, R. Bast, A. J. Thorvaldsen and K. Ruud;
J.Chem.Theor.Comp. 2010, DOI: 10.1021/ct100117s
XCFun Version 0.99 

================================================================================

----- Orbital basis set information -----
Your calculation utilizes the basis: def2-mTZVP
----- AuxJ basis set information -----
Your calculation utilizes the basis: def2-mTZVP/J
================================================================================
                                        WARNINGS
                       Please study these warnings very carefully!
================================================================================


INFO   : the flag for use of the SHARK integral package has been found!

================================================================================
                                       INPUT FILE
================================================================================
NAME = 4sa4am-44_10_537.inp
|  1> ! B97-3c ENGRAD
|  2> %pal nprocs 1
|  3>     end
|  4> %Maxcore 3000.00
|  5> * xyzfile 0 1 4sa4am-44_10_537.xyz
|  6>   
|  7> 
|  8>                          ****END OF INPUT****
================================================================================

                     *******************************
                     * Energy+Gradient Calculation *
                     *******************************

---------------------------------
CARTESIAN COORDINATES (ANGSTROEM)
---------------------------------
  S      1.287341   -2.461340   -1.069310
  O      2.035281   -2.567295    0.173579
  O     -0.073858   -2.979048   -0.920097
  O      1.328595   -1.163665   -1.699034
  O      2.026302   -3.427798   -2.126572
  H      2.170334   -4.289676   -1.720549
  S     -2.525994   -0.511228    0.957977
  O     -1.144331   -0.385333    0.453403
  O     -3.397244   -1.111445   -0.025543
  O     -2.562469   -1.087796    2.278886
  O     -3.020238    1.015618    1.154452
  H     -3.060325    1.403262    0.250387
  S     -1.228927    2.388794   -1.592628
  O     -2.560166    1.853423   -1.382028
  O     -0.559113    2.788976   -0.368801
  O     -0.393398    1.543479   -2.437053
  O     -1.409276    3.722522   -2.483696
  H     -2.076612    4.284231   -2.074661
  S      2.546972    0.606464    1.983471
  O      1.351129   -0.162935    2.350525
  O      2.180218    1.919251    1.428346
  O      3.554196    0.653786    2.989058
  O      3.161823   -0.156319    0.690498
  H      2.875262   -1.093766    0.659818
  N     -0.118553   -2.397931    1.861592
  H     -0.259800   -2.613326    0.870749
  H      0.515934   -1.584449    1.906118
  H     -1.014279   -2.119682    2.267318
  H      0.303511   -3.181331    2.335280
  N     -0.465676    1.739479    2.020980
  H     -1.182778    2.426177    1.832074
  H     -0.612892    0.944004    1.377234
  H      0.471636    2.105118    1.815087
  H     -0.503021    1.390091    2.967263
  N      2.072829    1.474818   -1.240817
  H      1.154247    1.621181   -1.678440
  H      2.260558    0.472375   -1.254244
  H      2.796639    1.978128   -1.728833
  H      2.043550    1.764616   -0.247266
  N     -1.599521   -0.963867   -2.131112
  H     -1.850356   -1.235864   -3.068512
  H     -1.044260   -1.695730   -1.673077
  H     -1.043469   -0.102535   -2.148201
  H     -2.429804   -0.803433   -1.553622

----------------------------
CARTESIAN COORDINATES (A.U.)
----------------------------
  NO LB      ZA    FRAG     MASS         X           Y           Z
   0 S    16.0000    0    32.060    2.432721   -4.651258   -2.020703
   1 O     8.0000    0    15.999    3.846124   -4.851485    0.328017
   2 O     8.0000    0    15.999   -0.139571   -5.629586   -1.738732
   3 O     8.0000    0    15.999    2.510681   -2.199008   -3.210709
   4 O     8.0000    0    15.999    3.829156   -6.477599   -4.018638
   5 H     1.0000    0     1.008    4.101337   -8.106312   -3.251366
   6 S    16.0000    0    32.060   -4.773436   -0.966081    1.810315
   7 O     8.0000    0    15.999   -2.162472   -0.728175    0.856807
   8 O     8.0000    0    15.999   -6.419861   -2.100327   -0.048269
   9 O     8.0000    0    15.999   -4.842365   -2.055637    4.306471
  10 O     8.0000    0    15.999   -5.707423    1.919239    2.181598
  11 H     1.0000    0     1.008   -5.783177    2.651781    0.473163
  12 S    16.0000    0    32.060   -2.322336    4.514167   -3.009630
  13 O     8.0000    0    15.999   -4.838013    3.502462   -2.611655
  14 O     8.0000    0    15.999   -1.056570    5.270401   -0.696933
  15 O     8.0000    0    15.999   -0.743414    2.916753   -4.605362
  16 O     8.0000    0    15.999   -2.663146    7.034548   -4.693505
  17 H     1.0000    0     1.008   -3.924228    8.096024   -3.920541
  18 S    16.0000    0    32.060    4.813080    1.146051    3.748216
  19 O     8.0000    0    15.999    2.553264   -0.307903    4.441848
  20 O     8.0000    0    15.999    4.120015    3.626858    2.699182
  21 O     8.0000    0    15.999    6.716458    1.235476    5.648501
  22 O     8.0000    0    15.999    5.974979   -0.295400    1.304852
  23 H     1.0000    0     1.008    5.433459   -2.066919    1.246876
  24 N     7.0000    0    14.007   -0.224034   -4.531432    3.517900
  25 H     1.0000    0     1.008   -0.490951   -4.938470    1.645477
  26 H     1.0000    0     1.008    0.974973   -2.994175    3.602040
  27 H     1.0000    0     1.008   -1.916709   -4.005619    4.284610
  28 H     1.0000    0     1.008    0.573553   -6.011845    4.413040
  29 N     7.0000    0    14.007   -0.880001    3.287139    3.819099
  30 H     1.0000    0     1.008   -2.235126    4.584810    3.462117
  31 H     1.0000    0     1.008   -1.158198    1.783910    2.602596
  32 H     1.0000    0     1.008    0.891263    3.978097    3.430018
  33 H     1.0000    0     1.008   -0.950572    2.626890    5.607315
  34 N     7.0000    0    14.007    3.917080    2.787002   -2.344805
  35 H     1.0000    0     1.008    2.181211    3.063589   -3.171793
  36 H     1.0000    0     1.008    4.271836    0.892660   -2.370178
  37 H     1.0000    0     1.008    5.284882    3.738120   -3.267020
  38 H     1.0000    0     1.008    3.861750    3.334642   -0.467265
  39 N     7.0000    0    14.007   -3.022656   -1.821444   -4.027217
  40 H     1.0000    0     1.008   -3.496666   -2.335445   -5.798647
  41 H     1.0000    0     1.008   -1.973365   -3.204466   -3.161656
  42 H     1.0000    0     1.008   -1.971871   -0.193764   -4.059512
  43 H     1.0000    0     1.008   -4.591664   -1.518269   -2.935920

--------------------------------
INTERNAL COORDINATES (ANGSTROEM)
--------------------------------
 S      0   0   0     0.000000000000     0.00000000     0.00000000
 O      1   0   0     1.454446773502     0.00000000     0.00000000
 O      1   2   0     1.463949199447   111.42537306     0.00000000
 O      1   2   3     1.442987874960   115.07071391   130.16725421
 O      1   2   3     1.611802345281   106.32539798   244.55828760
 H      5   1   2     0.963552756355   109.17585471    49.01868636
 S      3   1   2     3.953513957781   113.85245701    77.15814212
 O      7   3   1     1.476291775912    46.40032409     7.70908474
 O      7   3   1     1.444523925155    77.95328066   143.90487873
 O      7   3   1     1.441721792817   101.61256275   258.60919791
 O      7   3   1     1.616829421242   146.80326668    41.38179031
 H     11   7   3     0.984483707165   105.82471778    41.68665552
 S     12  11   7     2.778848174069   136.20857426   282.48966673
 O     13  12  11     1.450231865295    33.67336091   159.50085678
 O     13  12  11     1.451395215750    80.94952922   326.66851578
 O     13  12  11     1.457984942157   123.79229253    77.82889684
 O     13  12  11     1.614112510933   125.84157616   222.41395004
 H     17  13  12     0.963412659856   108.95190242    19.77360942
 S      2   1   3     3.689211411680   115.33345591   254.35575875
 O     19   2   1     1.468585818315    63.83043871    91.53423870
 O     19   2   1     1.471761405365   123.21283990   352.56242233
 O     19   2   1     1.424059575600   118.23662716   196.80067519
 O     19   2   1     1.622238512459    42.01634367   282.80075061
 H     23  19   2     0.980747263314   111.32358171   347.19284152
 N      8   7   3     2.661909691194    96.62483734   301.89729248
 H     25   8   7     1.023775389093    66.04047370   104.71511571
 H     25   8   7     1.032622301922    70.36466468   224.58921305
 H     25   8   7     1.021938889612    70.51294875   342.75009136
 H     25   8   7     1.008085051337   175.92775592   135.01760638
 N     15  13  12     2.611748279418   132.62984367    31.53801374
 H     30  15  13     1.010679722079    62.00248244   268.21653621
 H     30  15  13     1.033857480571    74.59405524    28.56310859
 H     30  15  13     1.026956100497    72.91036747   141.36627307
 H     30  15  13     1.009415384475   174.59188035   266.92790263
 N     21  19   2     2.708040662754   103.60707198   338.99003147
 H     35  21  19     1.027973324533   115.57366817   117.78574733
 H     35  21  19     1.019957575328    99.61194809     3.13951712
 H     35  21  19     1.007660869474   111.52420968   246.33684175
 H     35  21  19     1.035366970934     7.84087437   164.58699662
 N      8   7   3     2.687306136715    98.73267714    57.79358500
 H     40   8   7     1.007779973007   174.18185875   332.76399704
 H     40   8   7     1.026516106153    68.45259369   247.70972599
 H     40   8   7     1.025367187215    75.12739879   130.77038343
 H     40   8   7     1.024013133448    63.97490365    11.08518481

---------------------------
INTERNAL COORDINATES (A.U.)
---------------------------
 S      0   0   0     0.000000000000     0.00000000     0.00000000
 O      1   0   0     2.748506078285     0.00000000     0.00000000
 O      1   2   0     2.766463060927   111.42537306     0.00000000
 O      1   2   3     2.726851898243   115.07071391   130.16725421
 O      1   2   3     3.045865014594   106.32539798   244.55828760
 H      5   1   2     1.820850825096   109.17585471    49.01868636
 S      3   1   2     7.471058646842   113.85245701    77.15814212
 O      7   3   1     2.789787150233    46.40032409     7.70908474
 O      7   3   1     2.729754612440    77.95328066   143.90487873
 O      7   3   1     2.724459349730   101.61256275   258.60919791
 O      7   3   1     3.055364811414   146.80326668    41.38179031
 H     11   7   3     1.860404589849   105.82471778    41.68665552
 S     12  11   7     5.251262016737   136.20857426   282.48966673
 O     13  12  11     2.740541056093    33.67336091   159.50085678
 O     13  12  11     2.742739469851    80.94952922   326.66851578
 O     13  12  11     2.755192248058   123.79229253    77.82889684
 O     13  12  11     3.050230594999   125.84157616   222.41395004
 H     17  13  12     1.820586081081   108.95190242    19.77360942
 S      2   1   3     6.971599218212   115.33345591   254.35575875
 O     19   2   1     2.775225000775    63.83043871    91.53423870
 O     19   2   1     2.781225990615   123.21283990   352.56242233
 O     19   2   1     2.691082596272   118.23662716   196.80067519
 O     19   2   1     3.065586512448    42.01634367   282.80075061
 H     23  19   2     1.853343734256   111.32358171   347.19284152
 N      8   7   3     5.030280309587    96.62483734   301.89729248
 H     25   8   7     1.934655108035    66.04047370   104.71511571
 H     25   8   7     1.951373350411    70.36466468   224.58921305
 H     25   8   7     1.931184626970    70.51294875   342.75009136
 H     25   8   7     1.905004666726   175.92775592   135.01760638
 N     15  13  12     4.935488978840   132.62984367    31.53801374
 H     30  15  13     1.909907883837    62.00248244   268.21653621
 H     30  15  13     1.953707499785    74.59405524    28.56310859
 H     30  15  13     1.940665781499    72.91036747   141.36627307
 H     30  15  13     1.907518632024   174.59188035   266.92790263
 N     21  19   2     5.117455212127   103.60707198   338.99003147
 H     35  21  19     1.942588056345   115.57366817   117.78574733
 H     35  21  19     1.927440485589    99.61194809     3.13951712
 H     35  21  19     1.904203079176   111.52420968   246.33684175
 H     35  21  19     1.956560023173     7.84087437   164.58699662
 N      8   7   3     5.078272636398    98.73267714    57.79358500
 H     40   8   7     1.904428152234   174.18185875   332.76399704
 H     40   8   7     1.939834312688    68.45259369   247.70972599
 H     40   8   7     1.937663170546    75.12739879   130.77038343
 H     40   8   7     1.935104379756    63.97490365    11.08518481

---------------------
BASIS SET INFORMATION
---------------------
There are 4 groups of distinct atoms

 Group   1 Type S   : 14s9p1d contracted to 5s4p1d pattern {73211/6111/1}
 Group   2 Type O   : 11s6p2d contracted to 5s3p2d pattern {62111/411/11}
 Group   3 Type H   : 5s contracted to 3s pattern {311}
 Group   4 Type N   : 11s6p1d contracted to 5s3p1d pattern {62111/411/1}

Atom   0S    basis set group =>   1
Atom   1O    basis set group =>   2
Atom   2O    basis set group =>   2
Atom   3O    basis set group =>   2
Atom   4O    basis set group =>   2
Atom   5H    basis set group =>   3
Atom   6S    basis set group =>   1
Atom   7O    basis set group =>   2
Atom   8O    basis set group =>   2
Atom   9O    basis set group =>   2
Atom  10O    basis set group =>   2
Atom  11H    basis set group =>   3
Atom  12S    basis set group =>   1
Atom  13O    basis set group =>   2
Atom  14O    basis set group =>   2
Atom  15O    basis set group =>   2
Atom  16O    basis set group =>   2
Atom  17H    basis set group =>   3
Atom  18S    basis set group =>   1
Atom  19O    basis set group =>   2
Atom  20O    basis set group =>   2
Atom  21O    basis set group =>   2
Atom  22O    basis set group =>   2
Atom  23H    basis set group =>   3
Atom  24N    basis set group =>   4
Atom  25H    basis set group =>   3
Atom  26H    basis set group =>   3
Atom  27H    basis set group =>   3
Atom  28H    basis set group =>   3
Atom  29N    basis set group =>   4
Atom  30H    basis set group =>   3
Atom  31H    basis set group =>   3
Atom  32H    basis set group =>   3
Atom  33H    basis set group =>   3
Atom  34N    basis set group =>   4
Atom  35H    basis set group =>   3
Atom  36H    basis set group =>   3
Atom  37H    basis set group =>   3
Atom  38H    basis set group =>   3
Atom  39N    basis set group =>   4
Atom  40H    basis set group =>   3
Atom  41H    basis set group =>   3
Atom  42H    basis set group =>   3
Atom  43H    basis set group =>   3
---------------------------------
AUXILIARY/J BASIS SET INFORMATION
---------------------------------
There are 4 groups of distinct atoms

 Group   1 Type S   : 14s5p5d2f1g contracted to 8s4p3d1f1g pattern {71111111/2111/311/2/1}
 Group   2 Type O   : 8s3p3d contracted to 6s3p3d pattern {311111/111/111}
 Group   3 Type H   : 5s2p contracted to 3s1p pattern {311/2}
 Group   4 Type N   : 8s3p3d contracted to 6s3p3d pattern {311111/111/111}

Atom   0S    basis set group =>   1
Atom   1O    basis set group =>   2
Atom   2O    basis set group =>   2
Atom   3O    basis set group =>   2
Atom   4O    basis set group =>   2
Atom   5H    basis set group =>   3
Atom   6S    basis set group =>   1
Atom   7O    basis set group =>   2
Atom   8O    basis set group =>   2
Atom   9O    basis set group =>   2
Atom  10O    basis set group =>   2
Atom  11H    basis set group =>   3
Atom  12S    basis set group =>   1
Atom  13O    basis set group =>   2
Atom  14O    basis set group =>   2
Atom  15O    basis set group =>   2
Atom  16O    basis set group =>   2
Atom  17H    basis set group =>   3
Atom  18S    basis set group =>   1
Atom  19O    basis set group =>   2
Atom  20O    basis set group =>   2
Atom  21O    basis set group =>   2
Atom  22O    basis set group =>   2
Atom  23H    basis set group =>   3
Atom  24N    basis set group =>   4
Atom  25H    basis set group =>   3
Atom  26H    basis set group =>   3
Atom  27H    basis set group =>   3
Atom  28H    basis set group =>   3
Atom  29N    basis set group =>   4
Atom  30H    basis set group =>   3
Atom  31H    basis set group =>   3
Atom  32H    basis set group =>   3
Atom  33H    basis set group =>   3
Atom  34N    basis set group =>   4
Atom  35H    basis set group =>   3
Atom  36H    basis set group =>   3
Atom  37H    basis set group =>   3
Atom  38H    basis set group =>   3
Atom  39N    basis set group =>   4
Atom  40H    basis set group =>   3
Atom  41H    basis set group =>   3
Atom  42H    basis set group =>   3
Atom  43H    basis set group =>   3
------------------------------------------------------------------------------
                           ORCA GTO INTEGRAL CALCULATION
                           -- RI-GTO INTEGRALS CHOSEN --
------------------------------------------------------------------------------
------------------------------------------------------------------------------
                   ___                                                        
                  /   \      - P O W E R E D   B Y -                         
                 /     \                                                     
                 |  |  |   _    _      __       _____    __    __             
                 |  |  |  | |  | |    /  \     |  _  \  |  |  /  |          
                  \  \/   | |  | |   /    \    | | | |  |  | /  /          
                 / \  \   | |__| |  /  /\  \   | |_| |  |  |/  /          
                |  |  |   |  __  | /  /__\  \  |    /   |      \           
                |  |  |   | |  | | |   __   |  |    \   |  |\   \          
                \     /   | |  | | |  |  |  |  | |\  \  |  | \   \       
                 \___/    |_|  |_| |__|  |__|  |_| \__\ |__|  \__/        
                                                                              
                      - O R C A' S   B I G   F R I E N D -                    
                                      &                                       
                       - I N T E G R A L  F E E D E R -                       
                                                                              
 v1 FN, 2020, v2 2021                                                         
------------------------------------------------------------------------------


Reading SHARK input file 4sa4am-44_10_537.SHARKINP.tmp ... ok
----------------------
SHARK INTEGRAL PACKAGE
----------------------

Number of atoms                             ...     44
Number of basis functions                   ...    608
Number of shells                            ...    296
Maximum angular momentum                    ...      2
Integral batch strategy                     ... SHARK/LIBINT Hybrid
RI-J (if used) integral strategy            ... SPLIT-RIJ (Revised 2003 algorithm where possible)
Printlevel                                  ...      1
Contraction scheme used                     ... SEGMENTED contraction
Coulomb Range Separation                    ... NOT USED
Exchange Range Separation                   ... NOT USED
Finite Nucleus Model                        ... NOT USED
Auxiliary Coulomb fitting basis             ... AVAILABLE
   # of basis functions in Aux-J            ...    924
   # of shells in Aux-J                     ...    388
   Maximum angular momentum in Aux-J        ...      4
Auxiliary J/K fitting basis                 ... NOT available
Auxiliary Correlation fitting basis         ... NOT available
Auxiliary 'external' fitting basis          ... NOT available
Integral threshold                          ...     2.500000e-11
Primitive cut-off                           ...     2.500000e-12
Primitive pair pre-selection threshold      ...     2.500000e-12

Calculating pre-screening integrals         ... done (  0.2 sec) Dimension = 296
Organizing shell pair data                  ... done (  0.4 sec)
Shell pair information
Total number of shell pairs                 ...     43956
Shell pairs after pre-screening             ...     31843
Total number of primitive shell pairs       ...    164538
Primitive shell pairs kept                  ...     71571
          la=0 lb=0:  10795 shell pairs
          la=1 lb=0:   9956 shell pairs
          la=1 lb=1:   2335 shell pairs
          la=2 lb=0:   5555 shell pairs
          la=2 lb=1:   2503 shell pairs
          la=2 lb=2:    699 shell pairs

Calculating one electron integrals          ... done (  0.2 sec)
Calculating RI/J V-Matrix + Cholesky decomp.... done (  0.1 sec)
Calculating Nuclear repulsion               ... done (  0.0 sec) ENN=   3983.608407113911 Eh

SHARK setup successfully completed in   1.3 seconds

Maximum memory used throughout the entire GTOINT-calculation: 228.9 MB
-------------------------------------------------------------------------------
                                 ORCA SCF
-------------------------------------------------------------------------------

------------
SCF SETTINGS
------------
Hamiltonian:
 Density Functional     Method          .... DFT(GTOs)
 Exchange Functional    Exchange        .... B973C
 Correlation Functional Correlation     .... B973C
 Gradients option       PostSCFGGA      .... off
   Density functional embedding theory  .... OFF
 RI-approximation to the Coulomb term is turned on
   Number of AuxJ basis functions       .... 924


General Settings:
 Integral files         IntName         .... 4sa4am-44_10_537
 Hartree-Fock type      HFTyp           .... RHF
 Total Charge           Charge          ....    0
 Multiplicity           Mult            ....    1
 Number of Electrons    NEL             ....  240
 Basis Dimension        Dim             ....  608
 Nuclear Repulsion      ENuc            ....   3983.6084071139 Eh

Convergence Acceleration:
 DIIS                   CNVDIIS         .... on
   Start iteration      DIISMaxIt       ....    12
   Startup error        DIISStart       ....  0.200000
   # of expansion vecs  DIISMaxEq       ....     5
   Bias factor          DIISBfac        ....   1.050
   Max. coefficient     DIISMaxC        ....  10.000
 Trust-Rad. Augm. Hess. CNVTRAH         .... auto
   Auto Start mean grad. ratio tolernc. ....  1.125000
   Auto Start start iteration           ....    20
   Auto Start num. interpolation iter.  ....    10
   Max. Number of Micro iterations      ....    16
   Max. Number of Macro iterations      .... Maxiter - #DIIS iter
   Number of Davidson start vectors     ....     2
   Converg. threshold I  (grad. norm)   ....   1.000e-05
   Converg. threshold II (energy diff.) ....   1.000e-08
   Grad. Scal. Fac. for Micro threshold ....   0.100
   Minimum threshold for Micro iter.    ....   0.010
   NR start threshold (gradient norm)   ....   0.001
   Initial trust radius                 ....   0.400
   Minimum AH scaling param. (alpha)    ....   1.000
   Maximum AH scaling param. (alpha)    .... 1000.000
   Orbital update algorithm             .... Taylor
   White noise on init. David. guess    .... on
   Maximum white noise                  ....   0.010
   Quad. conv. algorithm                .... NR
   COSX micro iterations for RIJONX calc.... off
 SOSCF                  CNVSOSCF        .... on
   Start iteration      SOSCFMaxIt      ....   150
   Startup grad/error   SOSCFStart      ....  0.003300
 Level Shifting         CNVShift        .... on
   Level shift para.    LevelShift      ....    0.2500
   Turn off err/grad.   ShiftErr        ....    0.0010
 Zerner damping         CNVZerner       .... off
 Static damping         CNVDamp         .... on
   Fraction old density DampFac         ....    0.7000
   Max. Damping (<1)    DampMax         ....    0.9800
   Min. Damping (>=0)   DampMin         ....    0.0000
   Turn off err/grad.   DampErr         ....    0.1000
 Fernandez-Rico         CNVRico         .... off

SCF Procedure:
 Maximum # iterations   MaxIter         ....   125
 SCF integral mode      SCFMode         .... Direct
   Integral package                     .... SHARK and LIBINT hybrid scheme
 Reset frequency        DirectResetFreq ....    20
 Integral Threshold     Thresh          ....  2.500e-11 Eh
 Primitive CutOff       TCut            ....  2.500e-12 Eh

Convergence Tolerance:
 Convergence Check Mode ConvCheckMode   .... Total+1el-Energy
 Convergence forced     ConvForced      .... 0
 Energy Change          TolE            ....  1.000e-08 Eh
 1-El. energy change                    ....  1.000e-05 Eh
 Orbital Gradient       TolG            ....  1.000e-05
 Orbital Rotation angle TolX            ....  1.000e-05
 DIIS Error             TolErr          ....  5.000e-07


Diagonalization of the overlap matrix:
Smallest eigenvalue                        ... 1.802e-04
Time for diagonalization                   ...    0.125 sec
Threshold for overlap eigenvalues          ... 1.000e-08
Number of eigenvalues below threshold      ... 0
Time for construction of square roots      ...    0.097 sec
Total time needed                          ...    0.224 sec

--------------------------------
INITIAL GUESS: MINIMAL BASIS EHT
--------------------------------
The minimal basis has 156 functions
EHT matrix was diagonalized
Basis set overlap was calculated now projecting the orbitals
Using GuessMode=FMatrix for the initial guess
C*T matrix was formed
Effective Fockian was calculated
Effective Fockian was diagonalized
Initial density was built
                      ------------------
                      INITIAL GUESS DONE
                      ------------------
-------------------
DFT GRID GENERATION
-------------------

General Integration Accuracy     IntAcc      ... 4.388
Radial Grid Type                 RadialGrid  ... OptM3 with GC (2021)
Angular Grid (max. ang.)         AngularGrid ... 4 (Lebedev-302)
Angular grid pruning method      GridPruning ... 4 (adaptive)
Weight generation scheme         WeightScheme... Becke
Basis function cutoff            BFCut       ... 1.0000e-11
Integration weight cutoff        WCut        ... 1.0000e-14
Angular grids for H and He will be reduced by one unit
Partially contracted basis set               ... off
Rotationally invariant grid construction     ... off

Total number of grid points                  ...   216995
Total number of batches                      ...     3414
Average number of points per batch           ...       63
Average number of grid points per atom       ...     4932
Time for grid setup =    4.960 sec

--------------
SCF ITERATIONS
--------------
ITER       Energy         Delta-E        Max-DP      RMS-DP      [F,P]     Damp
               ***  Starting incremental Fock matrix formation  ***
  0  -3015.1257268957   0.000000000000 0.68691405  0.00560902  0.8470146 0.7000
  1  -3019.3593427313  -4.233615835593 0.17111051  0.00237829  0.5994407 0.7000
  2  -3021.2865475959  -1.927204864598 0.10923319  0.00143321  0.4109936 0.7000
  3  -3022.8038398691  -1.517292273189 0.09833014  0.00111181  0.2746955 0.7000
                               ***Turning on DIIS***
  4  -3023.8800679008  -1.076228031755 0.07369955  0.00082789  0.1824903 0.7000
  5  -3024.6274440218  -0.747376120903 0.05194609  0.00061190  0.1226444 0.7000
  6  -3025.1493510202  -0.521906998477 0.12495994  0.00147339  0.0857661 0.0000
  7  -3026.3698115755  -1.220460555263 0.00288992  0.00004915  0.0042672 0.0000
  8  -3026.3697577800   0.000053795530 0.00132642  0.00001880  0.0054996 0.0000
                      *** Initiating the SOSCF procedure ***
                           *** Shutting down DIIS ***
                      *** Re-Reading the Fockian *** 
                      *** Removing any level shift *** 
ITER      Energy       Delta-E        Grad      Rot      Max-DP    RMS-DP
  9  -3026.36993509  -0.0001773080  0.000123  0.000123  0.000407  0.000008
               *** Restarting incremental Fock matrix formation ***
 10  -3026.36994566  -0.0000105726  0.000053  0.000171  0.000412  0.000006
 11  -3026.36994391   0.0000017525  0.000134  0.000120  0.000251  0.000003
 12  -3026.36994609  -0.0000021811  0.000007  0.000019  0.000050  0.000001
 13  -3026.36994605   0.0000000404  0.000014  0.000012  0.000028  0.000000
                  ***Gradient check signals convergence***
              ***Rediagonalizing the Fockian in SOSCF/NRSCF***

               *****************************************************
               *                     SUCCESS                       *
               *           SCF CONVERGED AFTER  14 CYCLES          *
               *****************************************************


----------------
TOTAL SCF ENERGY
----------------

Total Energy       :        -3026.36994609 Eh          -82351.71291 eV

Components:
Nuclear Repulsion  :         3983.60840711 Eh          108399.49568 eV
Electronic Energy  :        -7009.97835321 Eh         -190751.20859 eV
One Electron Energy:       -12115.93108814 Eh         -329691.24609 eV
Two Electron Energy:         5105.95273493 Eh          138940.03749 eV

Virial components:
Potential Energy   :        -6045.85008073 Eh         -164515.94453 eV
Kinetic Energy     :         3019.48013463 Eh           82164.23161 eV
Virial Ratio       :            2.00228179


DFT components:
N(Alpha)           :      120.000029918329 electrons
N(Beta)            :      120.000029918329 electrons
N(Total)           :      240.000059836657 electrons
E(XC)              :     -275.130239812796 Eh       
DFET-embed. en.    :        0.000000000000 Eh       

---------------
SCF CONVERGENCE
---------------

  Last Energy change         ...   -4.5477e-08  Tolerance :   1.0000e-08
  Last MAX-Density change    ...    1.6637e-05  Tolerance :   1.0000e-07
  Last RMS-Density change    ...    2.4375e-07  Tolerance :   5.0000e-09
  Last Orbital Gradient      ...    1.9667e-06  Tolerance :   1.0000e-05
  Last Orbital Rotation      ...    4.5218e-06  Tolerance :   1.0000e-05

             **** THE GBW FILE WAS UPDATED (4sa4am-44_10_537.gbw) ****
             **** DENSITY 4sa4am-44_10_537.scfp WAS UPDATED ****
             **** ENERGY FILE WAS UPDATED (4sa4am-44_10_537.en.tmp) ****
             **** THE GBW FILE WAS UPDATED (4sa4am-44_10_537.gbw) ****
             **** DENSITY 4sa4am-44_10_537.scfp WAS UPDATED ****
----------------
ORBITAL ENERGIES
----------------

  NO   OCC          E(Eh)            E(eV) 
   0   2.0000     -88.281633     -2402.2654 
   1   2.0000     -88.276866     -2402.1357 
   2   2.0000     -88.261848     -2401.7270 
   3   2.0000     -88.255619     -2401.5575 
   4   2.0000     -18.799644      -511.5643 
   5   2.0000     -18.794822      -511.4331 
   6   2.0000     -18.772094      -510.8147 
   7   2.0000     -18.764923      -510.6195 
   8   2.0000     -18.755836      -510.3722 
   9   2.0000     -18.754864      -510.3458 
  10   2.0000     -18.749879      -510.2102 
  11   2.0000     -18.748715      -510.1785 
  12   2.0000     -18.745640      -510.0948 
  13   2.0000     -18.737117      -509.8629 
  14   2.0000     -18.736989      -509.8594 
  15   2.0000     -18.735840      -509.8281 
  16   2.0000     -18.733054      -509.7523 
  17   2.0000     -18.731635      -509.7137 
  18   2.0000     -18.728278      -509.6223 
  19   2.0000     -18.713591      -509.2227 
  20   2.0000     -14.071066      -382.8932 
  21   2.0000     -14.068164      -382.8142 
  22   2.0000     -14.066858      -382.7787 
  23   2.0000     -14.066440      -382.7673 
  24   2.0000      -7.942771      -216.1338 
  25   2.0000      -7.937979      -216.0034 
  26   2.0000      -7.923342      -215.6051 
  27   2.0000      -7.916518      -215.4194 
  28   2.0000      -5.973466      -162.5463 
  29   2.0000      -5.970235      -162.4584 
  30   2.0000      -5.970092      -162.4545 
  31   2.0000      -5.968680      -162.4161 
  32   2.0000      -5.965591      -162.3320 
  33   2.0000      -5.965142      -162.3198 
  34   2.0000      -5.954008      -162.0168 
  35   2.0000      -5.950969      -161.9341 
  36   2.0000      -5.950464      -161.9204 
  37   2.0000      -5.947371      -161.8362 
  38   2.0000      -5.944443      -161.7565 
  39   2.0000      -5.943234      -161.7236 
  40   2.0000      -1.104095       -30.0439 
  41   2.0000      -1.099409       -29.9164 
  42   2.0000      -1.085656       -29.5422 
  43   2.0000      -1.075211       -29.2580 
  44   2.0000      -0.974561       -26.5192 
  45   2.0000      -0.970279       -26.4026 
  46   2.0000      -0.952586       -25.9212 
  47   2.0000      -0.948694       -25.8153 
  48   2.0000      -0.947209       -25.7749 
  49   2.0000      -0.943520       -25.6745 
  50   2.0000      -0.937476       -25.5100 
  51   2.0000      -0.935702       -25.4617 
  52   2.0000      -0.934123       -25.4188 
  53   2.0000      -0.926575       -25.2134 
  54   2.0000      -0.925359       -25.1803 
  55   2.0000      -0.918499       -24.9936 
  56   2.0000      -0.899906       -24.4877 
  57   2.0000      -0.897430       -24.4203 
  58   2.0000      -0.895514       -24.3682 
  59   2.0000      -0.893707       -24.3190 
  60   2.0000      -0.607340       -16.5266 
  61   2.0000      -0.604313       -16.4442 
  62   2.0000      -0.579225       -15.7615 
  63   2.0000      -0.577794       -15.7226 
  64   2.0000      -0.527900       -14.3649 
  65   2.0000      -0.523424       -14.2431 
  66   2.0000      -0.522951       -14.2302 
  67   2.0000      -0.521895       -14.2015 
  68   2.0000      -0.519607       -14.1392 
  69   2.0000      -0.515503       -14.0275 
  70   2.0000      -0.513221       -13.9655 
  71   2.0000      -0.512679       -13.9507 
  72   2.0000      -0.511764       -13.9258 
  73   2.0000      -0.510303       -13.8860 
  74   2.0000      -0.508169       -13.8280 
  75   2.0000      -0.502892       -13.6844 
  76   2.0000      -0.494239       -13.4489 
  77   2.0000      -0.489796       -13.3280 
  78   2.0000      -0.471735       -12.8366 
  79   2.0000      -0.467760       -12.7284 
  80   2.0000      -0.454639       -12.3714 
  81   2.0000      -0.451084       -12.2746 
  82   2.0000      -0.446529       -12.1507 
  83   2.0000      -0.444185       -12.0869 
  84   2.0000      -0.434218       -11.8157 
  85   2.0000      -0.432390       -11.7659 
  86   2.0000      -0.429815       -11.6959 
  87   2.0000      -0.412813       -11.2332 
  88   2.0000      -0.403600       -10.9825 
  89   2.0000      -0.400421       -10.8960 
  90   2.0000      -0.386902       -10.5281 
  91   2.0000      -0.381024       -10.3682 
  92   2.0000      -0.345058        -9.3895 
  93   2.0000      -0.339886        -9.2488 
  94   2.0000      -0.336475        -9.1560 
  95   2.0000      -0.331352        -9.0166 
  96   2.0000      -0.330534        -8.9943 
  97   2.0000      -0.327664        -8.9162 
  98   2.0000      -0.325885        -8.8678 
  99   2.0000      -0.323410        -8.8004 
 100   2.0000      -0.319223        -8.6865 
 101   2.0000      -0.316530        -8.6132 
 102   2.0000      -0.312253        -8.4968 
 103   2.0000      -0.308105        -8.3840 
 104   2.0000      -0.305206        -8.3051 
 105   2.0000      -0.303346        -8.2545 
 106   2.0000      -0.301804        -8.2125 
 107   2.0000      -0.297139        -8.0856 
 108   2.0000      -0.283983        -7.7276 
 109   2.0000      -0.282736        -7.6936 
 110   2.0000      -0.271509        -7.3881 
 111   2.0000      -0.268633        -7.3099 
 112   2.0000      -0.267104        -7.2683 
 113   2.0000      -0.259368        -7.0578 
 114   2.0000      -0.257676        -7.0117 
 115   2.0000      -0.250476        -6.8158 
 116   2.0000      -0.250105        -6.8057 
 117   2.0000      -0.239677        -6.5220 
 118   2.0000      -0.238732        -6.4962 
 119   2.0000      -0.226910        -6.1745 
 120   0.0000      -0.018322        -0.4986 
 121   0.0000      -0.003151        -0.0857 
 122   0.0000       0.009743         0.2651 
 123   0.0000       0.010267         0.2794 
 124   0.0000       0.014035         0.3819 
 125   0.0000       0.022020         0.5992 
 126   0.0000       0.044938         1.2228 
 127   0.0000       0.052776         1.4361 
 128   0.0000       0.054392         1.4801 
 129   0.0000       0.057469         1.5638 
 130   0.0000       0.065443         1.7808 
 131   0.0000       0.068715         1.8698 
 132   0.0000       0.070935         1.9303 
 133   0.0000       0.075453         2.0532 
 134   0.0000       0.081361         2.2139 
 135   0.0000       0.084786         2.3072 
 136   0.0000       0.092995         2.5305 
 137   0.0000       0.094550         2.5728 
 138   0.0000       0.100668         2.7393 
 139   0.0000       0.102844         2.7985 
 140   0.0000       0.105560         2.8724 
 141   0.0000       0.109028         2.9668 
 142   0.0000       0.119286         3.2459 
 143   0.0000       0.132638         3.6093 
 144   0.0000       0.135373         3.6837 
 145   0.0000       0.138131         3.7587 
 146   0.0000       0.139206         3.7880 
 147   0.0000       0.143333         3.9003 
 148   0.0000       0.144597         3.9347 
 149   0.0000       0.147982         4.0268 
 150   0.0000       0.151019         4.1094 
 151   0.0000       0.155226         4.2239 
 152   0.0000       0.163042         4.4366 
 153   0.0000       0.165784         4.5112 
 154   0.0000       0.166502         4.5307 
 155   0.0000       0.171153         4.6573 
 156   0.0000       0.173080         4.7097 
 157   0.0000       0.177225         4.8225 
 158   0.0000       0.180179         4.9029 
 159   0.0000       0.181820         4.9476 
 160   0.0000       0.186953         5.0872 
 161   0.0000       0.190602         5.1865 
 162   0.0000       0.192814         5.2467 
 163   0.0000       0.199205         5.4206 
 164   0.0000       0.200403         5.4532 
 165   0.0000       0.204845         5.5741 
 166   0.0000       0.207893         5.6571 
 167   0.0000       0.209860         5.7106 
 168   0.0000       0.218679         5.9506 
 169   0.0000       0.223122         6.0715 
 170   0.0000       0.224830         6.1179 
 171   0.0000       0.229915         6.2563 
 172   0.0000       0.232579         6.3288 
 173   0.0000       0.237472         6.4619 
 174   0.0000       0.241008         6.5582 
 175   0.0000       0.243599         6.6287 
 176   0.0000       0.250925         6.8280 
 177   0.0000       0.257770         7.0143 
 178   0.0000       0.259152         7.0519 
 179   0.0000       0.264019         7.1843 
 180   0.0000       0.269346         7.3293 
 181   0.0000       0.274573         7.4715 
 182   0.0000       0.276154         7.5145 
 183   0.0000       0.282936         7.6991 
 184   0.0000       0.289122         7.8674 
 185   0.0000       0.289694         7.8830 
 186   0.0000       0.296019         8.0551 
 187   0.0000       0.305206         8.3051 
 188   0.0000       0.308724         8.4008 
 189   0.0000       0.310276         8.4430 
 190   0.0000       0.316665         8.6169 
 191   0.0000       0.319017         8.6809 
 192   0.0000       0.321274         8.7423 
 193   0.0000       0.333909         9.0861 
 194   0.0000       0.337093         9.1728 
 195   0.0000       0.341427         9.2907 
 196   0.0000       0.343321         9.3422 
 197   0.0000       0.344000         9.3607 
 198   0.0000       0.350639         9.5414 
 199   0.0000       0.355781         9.6813 
 200   0.0000       0.358168         9.7462 
 201   0.0000       0.363175         9.8825 
 202   0.0000       0.367506        10.0004 
 203   0.0000       0.371247        10.1021 
 204   0.0000       0.375917        10.2292 
 205   0.0000       0.383085        10.4243 
 206   0.0000       0.386185        10.5086 
 207   0.0000       0.389146        10.5892 
 208   0.0000       0.390638        10.6298 
 209   0.0000       0.394080        10.7235 
 210   0.0000       0.396496        10.7892 
 211   0.0000       0.400716        10.9040 
 212   0.0000       0.402435        10.9508 
 213   0.0000       0.405432        11.0324 
 214   0.0000       0.407468        11.0878 
 215   0.0000       0.411304        11.1921 
 216   0.0000       0.413822        11.2607 
 217   0.0000       0.418476        11.3873 
 218   0.0000       0.422283        11.4909 
 219   0.0000       0.426644        11.6096 
 220   0.0000       0.432418        11.7667 
 221   0.0000       0.434917        11.8347 
 222   0.0000       0.442974        12.0539 
 223   0.0000       0.445281        12.1167 
 224   0.0000       0.450927        12.2704 
 225   0.0000       0.454438        12.3659 
 226   0.0000       0.459981        12.5167 
 227   0.0000       0.464856        12.6494 
 228   0.0000       0.465529        12.6677 
 229   0.0000       0.471762        12.8373 
 230   0.0000       0.475414        12.9367 
 231   0.0000       0.477934        13.0052 
 232   0.0000       0.483372        13.1532 
 233   0.0000       0.490155        13.3378 
 234   0.0000       0.494591        13.4585 
 235   0.0000       0.501798        13.6546 
 236   0.0000       0.506963        13.7952 
 237   0.0000       0.512877        13.9561 
 238   0.0000       0.519112        14.1257 
 239   0.0000       0.523025        14.2322 
 240   0.0000       0.532043        14.4776 
 241   0.0000       0.533536        14.5183 
 242   0.0000       0.539585        14.6828 
 243   0.0000       0.549471        14.9519 
 244   0.0000       0.552581        15.0365 
 245   0.0000       0.555031        15.1032 
 246   0.0000       0.560022        15.2390 
 247   0.0000       0.565889        15.3986 
 248   0.0000       0.570650        15.5282 
 249   0.0000       0.582960        15.8631 
 250   0.0000       0.588701        16.0194 
 251   0.0000       0.593938        16.1619 
 252   0.0000       0.596887        16.2421 
 253   0.0000       0.606342        16.4994 
 254   0.0000       0.612024        16.6540 
 255   0.0000       0.615520        16.7491 
 256   0.0000       0.618718        16.8362 
 257   0.0000       0.628746        17.1091 
 258   0.0000       0.631637        17.1877 
 259   0.0000       0.634280        17.2596 
 260   0.0000       0.640785        17.4366 
 261   0.0000       0.647556        17.6209 
 262   0.0000       0.653440        17.7810 
 263   0.0000       0.657090        17.8803 
 264   0.0000       0.664344        18.0777 
 265   0.0000       0.666996        18.1499 
 266   0.0000       0.670227        18.2378 
 267   0.0000       0.671126        18.2623 
 268   0.0000       0.672926        18.3113 
 269   0.0000       0.682443        18.5702 
 270   0.0000       0.686723        18.6867 
 271   0.0000       0.694049        18.8860 
 272   0.0000       0.703384        19.1401 
 273   0.0000       0.707063        19.2402 
 274   0.0000       0.710505        19.3338 
 275   0.0000       0.719364        19.5749 
 276   0.0000       0.724562        19.7163 
 277   0.0000       0.726491        19.7688 
 278   0.0000       0.735391        20.0110 
 279   0.0000       0.740733        20.1564 
 280   0.0000       0.750530        20.4230 
 281   0.0000       0.751721        20.4554 
 282   0.0000       0.755005        20.5447 
 283   0.0000       0.759329        20.6624 
 284   0.0000       0.763017        20.7627 
 285   0.0000       0.766232        20.8502 
 286   0.0000       0.771965        21.0062 
 287   0.0000       0.775720        21.1084 
 288   0.0000       0.780094        21.2274 
 289   0.0000       0.780855        21.2481 
 290   0.0000       0.791291        21.5321 
 291   0.0000       0.794088        21.6082 
 292   0.0000       0.796836        21.6830 
 293   0.0000       0.804744        21.8982 
 294   0.0000       0.807570        21.9751 
 295   0.0000       0.812179        22.1005 
 296   0.0000       0.812617        22.1124 
 297   0.0000       0.819215        22.2920 
 298   0.0000       0.827879        22.5277 
 299   0.0000       0.829962        22.5844 
 300   0.0000       0.837490        22.7893 
 301   0.0000       0.841622        22.9017 
 302   0.0000       0.844016        22.9668 
 303   0.0000       0.850376        23.1399 
 304   0.0000       0.856746        23.3132 
 305   0.0000       0.858876        23.3712 
 306   0.0000       0.860203        23.4073 
 307   0.0000       0.864500        23.5243 
 308   0.0000       0.875015        23.8104 
 309   0.0000       0.880123        23.9494 
 310   0.0000       0.887225        24.1426 
 311   0.0000       0.890637        24.2355 
 312   0.0000       0.898140        24.4396 
 313   0.0000       0.899831        24.4856 
 314   0.0000       0.907713        24.7001 
 315   0.0000       0.910771        24.7833 
 316   0.0000       0.916364        24.9355 
 317   0.0000       0.920408        25.0456 
 318   0.0000       0.926417        25.2091 
 319   0.0000       0.930390        25.3172 
 320   0.0000       0.936119        25.4731 
 321   0.0000       0.943195        25.6656 
 322   0.0000       0.949620        25.8405 
 323   0.0000       0.952017        25.9057 
 324   0.0000       0.956737        26.0341 
 325   0.0000       0.962363        26.1872 
 326   0.0000       0.966504        26.2999 
 327   0.0000       0.970624        26.4120 
 328   0.0000       0.975379        26.5414 
 329   0.0000       0.978661        26.6307 
 330   0.0000       0.983865        26.7723 
 331   0.0000       0.992141        26.9975 
 332   0.0000       0.995165        27.0798 
 333   0.0000       1.007398        27.4127 
 334   0.0000       1.009833        27.4790 
 335   0.0000       1.012431        27.5496 
 336   0.0000       1.021927        27.8080 
 337   0.0000       1.031041        28.0560 
 338   0.0000       1.035329        28.1727 
 339   0.0000       1.036681        28.2095 
 340   0.0000       1.046273        28.4705 
 341   0.0000       1.050999        28.5991 
 342   0.0000       1.058928        28.8149 
 343   0.0000       1.064290        28.9608 
 344   0.0000       1.074505        29.2388 
 345   0.0000       1.079437        29.3730 
 346   0.0000       1.082663        29.4608 
 347   0.0000       1.087248        29.5855 
 348   0.0000       1.096801        29.8455 
 349   0.0000       1.100563        29.9478 
 350   0.0000       1.110771        30.2256 
 351   0.0000       1.111520        30.2460 
 352   0.0000       1.112961        30.2852 
 353   0.0000       1.113647        30.3039 
 354   0.0000       1.119217        30.4555 
 355   0.0000       1.136779        30.9333 
 356   0.0000       1.141395        31.0589 
 357   0.0000       1.145463        31.1696 
 358   0.0000       1.152488        31.3608 
 359   0.0000       1.159014        31.5384 
 360   0.0000       1.165358        31.7110 
 361   0.0000       1.182386        32.1744 
 362   0.0000       1.189933        32.3797 
 363   0.0000       1.191903        32.4333 
 364   0.0000       1.222868        33.2759 
 365   0.0000       1.231336        33.5064 
 366   0.0000       1.252334        34.0777 
 367   0.0000       1.259237        34.2656 
 368   0.0000       1.296432        35.2777 
 369   0.0000       1.318445        35.8767 
 370   0.0000       1.360338        37.0167 
 371   0.0000       1.367434        37.2098 
 372   0.0000       1.520453        41.3736 
 373   0.0000       1.535480        41.7825 
 374   0.0000       1.554599        42.3028 
 375   0.0000       1.560388        42.4603 
 376   0.0000       1.569932        42.7200 
 377   0.0000       1.580926        43.0192 
 378   0.0000       1.593896        43.3721 
 379   0.0000       1.610227        43.8165 
 380   0.0000       1.750670        47.6382 
 381   0.0000       1.765105        48.0309 
 382   0.0000       1.770024        48.1648 
 383   0.0000       1.771473        48.2042 
 384   0.0000       1.787363        48.6366 
 385   0.0000       1.825243        49.6674 
 386   0.0000       1.828218        49.7483 
 387   0.0000       1.835652        49.9506 
 388   0.0000       1.844376        50.1880 
 389   0.0000       1.855489        50.4904 
 390   0.0000       1.866390        50.7870 
 391   0.0000       1.885166        51.2980 
 392   0.0000       1.896158        51.5971 
 393   0.0000       1.907610        51.9087 
 394   0.0000       1.913216        52.0613 
 395   0.0000       1.918067        52.1933 
 396   0.0000       1.933124        52.6030 
 397   0.0000       1.946122        52.9567 
 398   0.0000       1.948948        53.0336 
 399   0.0000       1.954903        53.1956 
 400   0.0000       1.958906        53.3046 
 401   0.0000       1.966592        53.5137 
 402   0.0000       1.968955        53.5780 
 403   0.0000       1.977300        53.8051 
 404   0.0000       1.981349        53.9153 
 405   0.0000       1.985672        54.0329 
 406   0.0000       1.989566        54.1388 
 407   0.0000       1.991474        54.1908 
 408   0.0000       1.996622        54.3309 
 409   0.0000       2.003239        54.5109 
 410   0.0000       2.004463        54.5442 
 411   0.0000       2.012134        54.7529 
 412   0.0000       2.019928        54.9650 
 413   0.0000       2.023784        55.0700 
 414   0.0000       2.027037        55.1585 
 415   0.0000       2.030880        55.2631 
 416   0.0000       2.036487        55.4156 
 417   0.0000       2.037927        55.4548 
 418   0.0000       2.048971        55.7553 
 419   0.0000       2.053958        55.8910 
 420   0.0000       2.059048        56.0295 
 421   0.0000       2.061941        56.1083 
 422   0.0000       2.075615        56.4803 
 423   0.0000       2.078650        56.5629 
 424   0.0000       2.080788        56.6211 
 425   0.0000       2.082945        56.6798 
 426   0.0000       2.087865        56.8137 
 427   0.0000       2.089484        56.8577 
 428   0.0000       2.094628        56.9977 
 429   0.0000       2.112465        57.4831 
 430   0.0000       2.114541        57.5396 
 431   0.0000       2.121299        57.7235 
 432   0.0000       2.123113        57.7729 
 433   0.0000       2.130163        57.9647 
 434   0.0000       2.136058        58.1251 
 435   0.0000       2.141148        58.2636 
 436   0.0000       2.146987        58.4225 
 437   0.0000       2.153460        58.5986 
 438   0.0000       2.159609        58.7660 
 439   0.0000       2.161374        58.8140 
 440   0.0000       2.166097        58.9425 
 441   0.0000       2.176412        59.2232 
 442   0.0000       2.187345        59.5207 
 443   0.0000       2.197460        59.7959 
 444   0.0000       2.201921        59.9173 
 445   0.0000       2.202443        59.9315 
 446   0.0000       2.211050        60.1657 
 447   0.0000       2.221936        60.4620 
 448   0.0000       2.227430        60.6115 
 449   0.0000       2.237228        60.8781 
 450   0.0000       2.246739        61.1369 
 451   0.0000       2.259116        61.4737 
 452   0.0000       2.266291        61.6689 
 453   0.0000       2.274828        61.9012 
 454   0.0000       2.288493        62.2731 
 455   0.0000       2.290821        62.3364 
 456   0.0000       2.295834        62.4728 
 457   0.0000       2.297942        62.5302 
 458   0.0000       2.304439        62.7070 
 459   0.0000       2.318664        63.0941 
 460   0.0000       2.328109        63.3511 
 461   0.0000       2.346161        63.8423 
 462   0.0000       2.350990        63.9737 
 463   0.0000       2.354261        64.0627 
 464   0.0000       2.365818        64.3772 
 465   0.0000       2.377191        64.6867 
 466   0.0000       2.386588        64.9424 
 467   0.0000       2.405569        65.4589 
 468   0.0000       2.417187        65.7750 
 469   0.0000       2.429355        66.1061 
 470   0.0000       2.431564        66.1662 
 471   0.0000       2.440563        66.4111 
 472   0.0000       2.452449        66.7345 
 473   0.0000       2.456129        66.8347 
 474   0.0000       2.464606        67.0653 
 475   0.0000       2.470275        67.2196 
 476   0.0000       2.480361        67.4940 
 477   0.0000       2.482690        67.5574 
 478   0.0000       2.491740        67.8037 
 479   0.0000       2.496728        67.9394 
 480   0.0000       2.503807        68.1320 
 481   0.0000       2.510138        68.3043 
 482   0.0000       2.519054        68.5469 
 483   0.0000       2.529465        68.8303 
 484   0.0000       2.533623        68.9434 
 485   0.0000       2.535477        68.9938 
 486   0.0000       2.545892        69.2772 
 487   0.0000       2.562458        69.7280 
 488   0.0000       2.568102        69.8816 
 489   0.0000       2.575219        70.0753 
 490   0.0000       2.581630        70.2497 
 491   0.0000       2.593153        70.5633 
 492   0.0000       2.606679        70.9313 
 493   0.0000       2.617198        71.2176 
 494   0.0000       2.621377        71.3313 
 495   0.0000       2.639787        71.8323 
 496   0.0000       2.644451        71.9592 
 497   0.0000       2.659659        72.3730 
 498   0.0000       2.677365        72.8548 
 499   0.0000       2.690469        73.2114 
 500   0.0000       2.701847        73.5210 
 501   0.0000       2.705295        73.6148 
 502   0.0000       2.706795        73.6556 
 503   0.0000       2.723682        74.1152 
 504   0.0000       2.763102        75.1878 
 505   0.0000       2.778382        75.6036 
 506   0.0000       2.781497        75.6884 
 507   0.0000       2.796604        76.0995 
 508   0.0000       2.813098        76.5483 
 509   0.0000       2.822286        76.7983 
 510   0.0000       2.829349        76.9905 
 511   0.0000       2.837422        77.2102 
 512   0.0000       2.838938        77.2514 
 513   0.0000       2.848317        77.5066 
 514   0.0000       2.855874        77.7123 
 515   0.0000       2.863779        77.9274 
 516   0.0000       2.871348        78.1334 
 517   0.0000       2.882901        78.4477 
 518   0.0000       2.891277        78.6757 
 519   0.0000       2.894065        78.7515 
 520   0.0000       2.899258        78.8928 
 521   0.0000       2.906580        79.0921 
 522   0.0000       2.908696        79.1496 
 523   0.0000       2.917679        79.3941 
 524   0.0000       2.924489        79.5794 
 525   0.0000       2.926328        79.6294 
 526   0.0000       2.937872        79.9436 
 527   0.0000       2.938655        79.9649 
 528   0.0000       2.948119        80.2224 
 529   0.0000       2.955674        80.4280 
 530   0.0000       2.967176        80.7410 
 531   0.0000       2.973138        80.9032 
 532   0.0000       2.978797        81.0572 
 533   0.0000       2.988136        81.3113 
 534   0.0000       2.992552        81.4315 
 535   0.0000       3.004631        81.7602 
 536   0.0000       3.008260        81.8589 
 537   0.0000       3.013355        81.9975 
 538   0.0000       3.021998        82.2327 
 539   0.0000       3.032618        82.5217 
 540   0.0000       3.037903        82.6655 
 541   0.0000       3.049923        82.9926 
 542   0.0000       3.054467        83.1163 
 543   0.0000       3.063433        83.3602 
 544   0.0000       3.068238        83.4910 
 545   0.0000       3.071187        83.5713 
 546   0.0000       3.080288        83.8189 
 547   0.0000       3.102842        84.4326 
 548   0.0000       3.116464        84.8033 
 549   0.0000       3.125720        85.0552 
 550   0.0000       3.142782        85.5195 
 551   0.0000       3.160577        86.0037 
 552   0.0000       3.166112        86.1543 
 553   0.0000       3.186592        86.7116 
 554   0.0000       3.204188        87.1904 
 555   0.0000       3.212687        87.4216 
 556   0.0000       3.229796        87.8872 
 557   0.0000       3.260532        88.7236 
 558   0.0000       3.261712        88.7557 
 559   0.0000       3.274761        89.1108 
 560   0.0000       3.308623        90.0322 
 561   0.0000       3.318868        90.3110 
 562   0.0000       3.348773        91.1247 
 563   0.0000       3.359817        91.4253 
 564   0.0000       3.387296        92.1730 
 565   0.0000       3.429718        93.3274 
 566   0.0000       3.437102        93.5283 
 567   0.0000       3.447223        93.8037 
 568   0.0000       3.458536        94.1116 
 569   0.0000       3.466072        94.3166 
 570   0.0000       3.486442        94.8709 
 571   0.0000       3.505930        95.4012 
 572   0.0000       3.520104        95.7869 
 573   0.0000       3.557412        96.8021 
 574   0.0000       3.573620        97.2432 
 575   0.0000       3.582926        97.4964 
 576   0.0000       3.593712        97.7899 
 577   0.0000       3.616214        98.4022 
 578   0.0000       3.630190        98.7825 
 579   0.0000       3.635708        98.9327 
 580   0.0000       3.643613        99.1478 
 581   0.0000       3.656326        99.4937 
 582   0.0000       3.666350        99.7664 
 583   0.0000       3.706990       100.8723 
 584   0.0000      19.846433       540.0489 
 585   0.0000      19.863339       540.5089 
 586   0.0000      19.938596       542.5568 
 587   0.0000      20.035328       545.1890 
 588   0.0000      31.599180       859.8574 
 589   0.0000      31.643617       861.0666 
 590   0.0000      31.686957       862.2459 
 591   0.0000      31.717735       863.0835 
 592   0.0000      43.261750      1177.2121 
 593   0.0000      43.284175      1177.8223 
 594   0.0000      43.349444      1179.5983 
 595   0.0000      43.360535      1179.9001 
 596   0.0000      43.393935      1180.8090 
 597   0.0000      43.404445      1181.0950 
 598   0.0000      43.414956      1181.3810 
 599   0.0000      43.436435      1181.9655 
 600   0.0000      43.449758      1182.3280 
 601   0.0000      43.478188      1183.1016 
 602   0.0000      43.504229      1183.8103 
 603   0.0000      43.525468      1184.3882 
 604   0.0000      43.581176      1185.9041 
 605   0.0000      43.605377      1186.5626 
 606   0.0000      43.617346      1186.8883 
 607   0.0000      43.714345      1189.5278 

                    ********************************
                    * MULLIKEN POPULATION ANALYSIS *
                    ********************************

-----------------------
MULLIKEN ATOMIC CHARGES
-----------------------
   0 S :    1.258027
   1 O :   -0.621520
   2 O :   -0.664844
   3 O :   -0.586390
   4 O :   -0.618905
   5 H :    0.457350
   6 S :    1.185001
   7 O :   -0.694768
   8 O :   -0.560978
   9 O :   -0.560089
  10 O :   -0.657284
  11 H :    0.436570
  12 S :    1.273897
  13 O :   -0.601142
  14 O :   -0.565373
  15 O :   -0.721232
  16 O :   -0.614606
  17 H :    0.457063
  18 S :    1.221347
  19 O :   -0.659128
  20 O :   -0.722916
  21 O :   -0.438286
  22 O :   -0.696571
  23 H :    0.435983
  24 N :   -0.823886
  25 H :    0.399543
  26 H :    0.457118
  27 H :    0.404854
  28 H :    0.379063
  29 N :   -0.793677
  30 H :    0.392591
  31 H :    0.450879
  32 H :    0.410915
  33 H :    0.389375
  34 N :   -0.775502
  35 H :    0.395464
  36 H :    0.425336
  37 H :    0.371113
  38 H :    0.399385
  39 N :   -0.771578
  40 H :    0.377386
  41 H :    0.392035
  42 H :    0.380643
  43 H :    0.397736
Sum of atomic charges:   -0.0000000

--------------------------------
MULLIKEN REDUCED ORBITAL CHARGES
--------------------------------
  0 S s       :     5.092180  s :     5.092180
      pz      :     2.912687  p :     8.767544
      px      :     2.907219
      py      :     2.947639
      dz2     :     0.162320  d :     0.882249
      dxz     :     0.181597
      dyz     :     0.187135
      dx2y2   :     0.175239
      dxy     :     0.175958
  1 O s       :     3.863421  s :     3.863421
      pz      :     1.364557  p :     4.716755
      px      :     1.611413
      py      :     1.740785
      dz2     :     0.011952  d :     0.041343
      dxz     :     0.007212
      dyz     :     0.007689
      dx2y2   :     0.007766
      dxy     :     0.006725
  2 O s       :     3.885994  s :     3.885994
      pz      :     1.747057  p :     4.726604
      px      :     1.277514
      py      :     1.702034
      dz2     :     0.011021  d :     0.052245
      dxz     :     0.007158
      dyz     :     0.011974
      dx2y2   :     0.009773
      dxy     :     0.012319
  3 O s       :     3.845444  s :     3.845444
      pz      :     1.635896  p :     4.701051
      px      :     1.745739
      py      :     1.319416
      dz2     :     0.006297  d :     0.039894
      dxz     :     0.003785
      dyz     :     0.012087
      dx2y2   :     0.007991
      dxy     :     0.009734
  4 O s       :     3.822921  s :     3.822921
      pz      :     1.621741  p :     4.738664
      px      :     1.761331
      py      :     1.355593
      dz2     :     0.011938  d :     0.057320
      dxz     :     0.010749
      dyz     :     0.018748
      dx2y2   :     0.010926
      dxy     :     0.004960
  5 H s       :     0.542650  s :     0.542650
  6 S s       :     5.058849  s :     5.058849
      pz      :     2.892201  p :     8.873431
      px      :     2.984298
      py      :     2.996932
      dz2     :     0.205961  d :     0.882719
      dxz     :     0.199688
      dyz     :     0.154173
      dx2y2   :     0.176911
      dxy     :     0.145986
  7 O s       :     3.860333  s :     3.860333
      pz      :     1.736426  p :     4.772719
      px      :     1.284173
      py      :     1.752120
      dz2     :     0.008541  d :     0.061715
      dxz     :     0.019648
      dyz     :     0.019801
      dx2y2   :     0.012611
      dxy     :     0.001114
  8 O s       :     3.878029  s :     3.878029
      pz      :     1.474357  p :     4.645685
      px      :     1.561696
      py      :     1.609632
      dz2     :     0.007075  d :     0.037263
      dxz     :     0.009824
      dyz     :     0.008806
      dx2y2   :     0.003594
      dxy     :     0.007964
  9 O s       :     3.861926  s :     3.861926
      pz      :     1.319662  p :     4.656769
      px      :     1.733930
      py      :     1.603177
      dz2     :     0.014846  d :     0.041394
      dxz     :     0.005609
      dyz     :     0.008421
      dx2y2   :     0.004889
      dxy     :     0.007629
 10 O s       :     3.821762  s :     3.821762
      pz      :     1.588580  p :     4.788931
      px      :     1.837042
      py      :     1.363308
      dz2     :     0.013432  d :     0.046591
      dxz     :     0.005917
      dyz     :     0.013578
      dx2y2   :     0.008416
      dxy     :     0.005248
 11 H s       :     0.563430  s :     0.563430
 12 S s       :     5.080818  s :     5.080818
      pz      :     2.945063  p :     8.763589
      px      :     2.899790
      py      :     2.918736
      dz2     :     0.164950  d :     0.881696
      dxz     :     0.194085
      dyz     :     0.183235
      dx2y2   :     0.175732
      dxy     :     0.163694
 13 O s       :     3.857429  s :     3.857429
      pz      :     1.730416  p :     4.707004
      px      :     1.314797
      py      :     1.661791
      dz2     :     0.009004  d :     0.036709
      dxz     :     0.006329
      dyz     :     0.004300
      dx2y2   :     0.007141
      dxy     :     0.009935
 14 O s       :     3.845969  s :     3.845969
      pz      :     1.373178  p :     4.688391
      px      :     1.629083
      py      :     1.686130
      dz2     :     0.011712  d :     0.031014
      dxz     :     0.008019
      dyz     :     0.005332
      dx2y2   :     0.003846
      dxy     :     0.002104
 15 O s       :     3.897777  s :     3.897777
      pz      :     1.619291  p :     4.749997
      px      :     1.572302
      py      :     1.558404
      dz2     :     0.010930  d :     0.073457
      dxz     :     0.015397
      dyz     :     0.016183
      dx2y2   :     0.015570
      dxy     :     0.015378
 16 O s       :     3.819507  s :     3.819507
      pz      :     1.673678  p :     4.740420
      px      :     1.679436
      py      :     1.387306
      dz2     :     0.007096  d :     0.054679
      dxz     :     0.012765
      dyz     :     0.016875
      dx2y2   :     0.007720
      dxy     :     0.010223
 17 H s       :     0.542937  s :     0.542937
 18 S s       :     5.047727  s :     5.047727
      pz      :     2.934474  p :     8.852836
      px      :     2.944250
      py      :     2.974112
      dz2     :     0.163520  d :     0.878089
      dxz     :     0.179862
      dyz     :     0.175057
      dx2y2   :     0.173528
      dxy     :     0.186122
 19 O s       :     3.842799  s :     3.842799
      pz      :     1.739940  p :     4.764020
      px      :     1.420710
      py      :     1.603370
      dz2     :     0.008131  d :     0.052310
      dxz     :     0.012372
      dyz     :     0.005840
      dx2y2   :     0.013603
      dxy     :     0.012363
 20 O s       :     3.889892  s :     3.889892
      pz      :     1.668632  p :     4.768612
      px      :     1.733661
      py      :     1.366319
      dz2     :     0.012301  d :     0.064411
      dxz     :     0.012366
      dyz     :     0.014185
      dx2y2   :     0.015028
      dxy     :     0.010531
 21 O s       :     3.836069  s :     3.836069
      pz      :     1.439464  p :     4.564087
      px      :     1.448157
      py      :     1.676465
      dz2     :     0.006465  d :     0.038130
      dxz     :     0.015835
      dyz     :     0.004386
      dx2y2   :     0.006035
      dxy     :     0.005409
 22 O s       :     3.818431  s :     3.818431
      pz      :     1.573248  p :     4.829520
      px      :     1.817635
      py      :     1.438637
      dz2     :     0.011060  d :     0.048620
      dxz     :     0.014231
      dyz     :     0.009274
      dx2y2   :     0.007309
      dxy     :     0.006746
 23 H s       :     0.564017  s :     0.564017
 24 N s       :     3.515826  s :     3.515826
      pz      :     1.424155  p :     4.277529
      px      :     1.434787
      py      :     1.418588
      dz2     :     0.007753  d :     0.030530
      dxz     :     0.004706
      dyz     :     0.005139
      dx2y2   :     0.004533
      dxy     :     0.008399
 25 H s       :     0.600457  s :     0.600457
 26 H s       :     0.542882  s :     0.542882
 27 H s       :     0.595146  s :     0.595146
 28 H s       :     0.620937  s :     0.620937
 29 N s       :     3.485533  s :     3.485533
      pz      :     1.407399  p :     4.276324
      px      :     1.424505
      py      :     1.444421
      dz2     :     0.009543  d :     0.031820
      dxz     :     0.001236
      dyz     :     0.007350
      dx2y2   :     0.004567
      dxy     :     0.009124
 30 H s       :     0.607409  s :     0.607409
 31 H s       :     0.549121  s :     0.549121
 32 H s       :     0.589085  s :     0.589085
 33 H s       :     0.610625  s :     0.610625
 34 N s       :     3.524001  s :     3.524001
      pz      :     1.432113  p :     4.222475
      px      :     1.387036
      py      :     1.403326
      dz2     :     0.007093  d :     0.029026
      dxz     :     0.006346
      dyz     :     0.003354
      dx2y2   :     0.007766
      dxy     :     0.004465
 35 H s       :     0.604536  s :     0.604536
 36 H s       :     0.574664  s :     0.574664
 37 H s       :     0.628887  s :     0.628887
 38 H s       :     0.600615  s :     0.600615
 39 N s       :     3.499356  s :     3.499356
      pz      :     1.369008  p :     4.242123
      px      :     1.432825
      py      :     1.440290
      dz2     :     0.007887  d :     0.030099
      dxz     :     0.006646
      dyz     :     0.003873
      dx2y2   :     0.003751
      dxy     :     0.007943
 40 H s       :     0.622614  s :     0.622614
 41 H s       :     0.607965  s :     0.607965
 42 H s       :     0.619357  s :     0.619357
 43 H s       :     0.602264  s :     0.602264


                     *******************************
                     * LOEWDIN POPULATION ANALYSIS *
                     *******************************

----------------------
LOEWDIN ATOMIC CHARGES
----------------------
   0 S :    1.881250
   1 O :   -0.796427
   2 O :   -0.851010
   3 O :   -0.790305
   4 O :   -0.676106
   5 H :    0.369345
   6 S :    1.871917
   7 O :   -0.931107
   8 O :   -0.766663
   9 O :   -0.763349
  10 O :   -0.760551
  11 H :    0.374243
  12 S :    1.878700
  13 O :   -0.777727
  14 O :   -0.804032
  15 O :   -0.853090
  16 O :   -0.679477
  17 H :    0.368733
  18 S :    1.874129
  19 O :   -0.876857
  20 O :   -0.883270
  21 O :   -0.672416
  22 O :   -0.785802
  23 H :    0.375277
  24 N :   -0.393793
  25 H :    0.334441
  26 H :    0.347644
  27 H :    0.328417
  28 H :    0.297776
  29 N :   -0.375476
  30 H :    0.313902
  31 H :    0.348315
  32 H :    0.338557
  33 H :    0.306073
  34 N :   -0.398648
  35 H :    0.334394
  36 H :    0.339011
  37 H :    0.300103
  38 H :    0.343380
  39 N :   -0.390467
  40 H :    0.296113
  41 H :    0.334874
  42 H :    0.334288
  43 H :    0.335691

-------------------------------
LOEWDIN REDUCED ORBITAL CHARGES
-------------------------------
  0 S s       :     4.616529  s :     4.616529
      pz      :     2.824671  p :     8.472636
      px      :     2.827849
      py      :     2.820116
      dz2     :     0.187653  d :     1.029585
      dxz     :     0.213280
      dyz     :     0.219906
      dx2y2   :     0.209446
      dxy     :     0.199300
  1 O s       :     3.650072  s :     3.650072
      pz      :     1.488124  p :     4.794064
      px      :     1.626177
      py      :     1.679763
      dz2     :     0.083075  d :     0.352291
      dxz     :     0.089269
      dyz     :     0.073401
      dx2y2   :     0.058241
      dxy     :     0.048304
  2 O s       :     3.661819  s :     3.661819
      pz      :     1.699877  p :     4.827385
      px      :     1.451606
      py      :     1.675901
      dz2     :     0.063401  d :     0.361806
      dxz     :     0.086670
      dyz     :     0.047517
      dx2y2   :     0.076415
      dxy     :     0.087804
  3 O s       :     3.652754  s :     3.652754
      pz      :     1.638175  p :     4.786521
      px      :     1.694000
      py      :     1.454346
      dz2     :     0.055865  d :     0.351030
      dxz     :     0.038058
      dyz     :     0.082502
      dx2y2   :     0.086512
      dxy     :     0.088093
  4 O s       :     3.614602  s :     3.614602
      pz      :     1.634790  p :     4.786175
      px      :     1.756416
      py      :     1.394969
      dz2     :     0.063395  d :     0.275330
      dxz     :     0.047025
      dyz     :     0.059984
      dx2y2   :     0.068135
      dxy     :     0.036791
  5 H s       :     0.630655  s :     0.630655
  6 S s       :     4.614420  s :     4.614420
      pz      :     2.841685  p :     8.481925
      px      :     2.835759
      py      :     2.804482
      dz2     :     0.239992  d :     1.031737
      dxz     :     0.230048
[...]
      dxy     :     0.045267
 10 O s       :     3.613437  s :     3.613437
      pz      :     1.575712  p :     4.802047
      px      :     1.798896
      py      :     1.427439
      dz2     :     0.068721  d :     0.345067
      dxz     :     0.037201
      dyz     :     0.093809
      dx2y2   :     0.074437
      dxy     :     0.070900
 11 H s       :     0.625757  s :     0.625757
 12 S s       :     4.618015  s :     4.618015
      pz      :     2.831491  p :     8.475048
      px      :     2.839201
      py      :     2.804356
      dz2     :     0.187105  d :     1.028236
      dxz     :     0.224486
      dyz     :     0.220996
      dx2y2   :     0.203644
      dxy     :     0.192005
 13 O s       :     3.648824  s :     3.648824
      pz      :     1.678251  p :     4.790454
      px      :     1.469465
      py      :     1.642738
      dz2     :     0.057771  d :     0.338449
      dxz     :     0.076598
      dyz     :     0.050252
      dx2y2   :     0.078121
      dxy     :     0.075707
 14 O s       :     3.663719  s :     3.663719
      pz      :     1.488573  p :     4.797727
      px      :     1.641628
      py      :     1.667526
      dz2     :     0.096060  d :     0.342586
      dxz     :     0.077848
      dyz     :     0.086405
      dx2y2   :     0.041913
      dxy     :     0.040360
 15 O s       :     3.653105  s :     3.653105
      pz      :     1.631685  p :     4.824691
      px      :     1.609058
      py      :     1.583948
      dz2     :     0.067989  d :     0.375294
      dxz     :     0.071870
      dyz     :     0.065156
      dx2y2   :     0.095813
      dxy     :     0.074467
 16 O s       :     3.614099  s :     3.614099
      pz      :     1.679421  p :     4.790025
      px      :     1.667899
      py      :     1.442705
      dz2     :     0.051117  d :     0.275354
      dxz     :     0.043333
      dyz     :     0.068114
      dx2y2   :     0.043205
      dxy     :     0.069584
 17 H s       :     0.631267  s :     0.631267
 18 S s       :     4.621416  s :     4.621416
      pz      :     2.819552  p :     8.480033
      px      :     2.839004
      py      :     2.821476
      dz2     :     0.184384  d :     1.024421
      dxz     :     0.219419
      dyz     :     0.204886
      dx2y2   :     0.200513
      dxy     :     0.215219
 19 O s       :     3.654351  s :     3.654351
      pz      :     1.705288  p :     4.845368
      px      :     1.518776
      py      :     1.621304
      dz2     :     0.051299  d :     0.377138
      dxz     :     0.078639
      dyz     :     0.048192
      dx2y2   :     0.088682
      dxy     :     0.110326
 20 O s       :     3.657814  s :     3.657814
      pz      :     1.657304  p :     4.850634
      px      :     1.697105
      py      :     1.496224
      dz2     :     0.084019  d :     0.374822
      dxz     :     0.054209
      dyz     :     0.078247
      dx2y2   :     0.087065
      dxy     :     0.071282
 21 O s       :     3.666872  s :     3.666872
      pz      :     1.533992  p :     4.746377
      px      :     1.542910
      py      :     1.669475
      dz2     :     0.059269  d :     0.259167
      dxz     :     0.068062
      dyz     :     0.045606
      dx2y2   :     0.041786
      dxy     :     0.044443
 22 O s       :     3.604953  s :     3.604953
      pz      :     1.594916  p :     4.821245
      px      :     1.772982
      py      :     1.453347
      dz2     :     0.085809  d :     0.359604
      dxz     :     0.076058
      dyz     :     0.072789
      dx2y2   :     0.065501
      dxy     :     0.059448
 23 H s       :     0.624723  s :     0.624723
 24 N s       :     3.237531  s :     3.237531
      pz      :     1.374728  p :     4.116068
      px      :     1.380076
      py      :     1.361265
      dz2     :     0.009679  d :     0.040194
      dxz     :     0.006459
      dyz     :     0.007095
      dx2y2   :     0.006043
      dxy     :     0.010918
 25 H s       :     0.665559  s :     0.665559
 26 H s       :     0.652356  s :     0.652356
 27 H s       :     0.671583  s :     0.671583
 28 H s       :     0.702224  s :     0.702224
 29 N s       :     3.236022  s :     3.236022
      pz      :     1.348314  p :     4.096949
      px      :     1.366987
      py      :     1.381649
      dz2     :     0.013149  d :     0.042504
      dxz     :     0.001557
      dyz     :     0.009546
      dx2y2   :     0.005954
      dxy     :     0.012299
 30 H s       :     0.686098  s :     0.686098
 31 H s       :     0.651685  s :     0.651685
 32 H s       :     0.661443  s :     0.661443
 33 H s       :     0.693927  s :     0.693927
 34 N s       :     3.237977  s :     3.237977
      pz      :     1.392518  p :     4.122920
      px      :     1.361008
      py      :     1.369394
      dz2     :     0.009045  d :     0.037751
      dxz     :     0.008396
      dyz     :     0.004492
      dx2y2   :     0.009824
      dxy     :     0.005994
 35 H s       :     0.665606  s :     0.665606
 36 H s       :     0.660989  s :     0.660989
 37 H s       :     0.699897  s :     0.699897
 38 H s       :     0.656620  s :     0.656620
 39 N s       :     3.236195  s :     3.236195
      pz      :     1.326825  p :     4.115096
      px      :     1.394320
      py      :     1.393951
      dz2     :     0.010836  d :     0.039175
      dxz     :     0.008580
      dyz     :     0.005099
      dx2y2   :     0.004791
      dxy     :     0.009867
 40 H s       :     0.703887  s :     0.703887
 41 H s       :     0.665126  s :     0.665126
 42 H s       :     0.665712  s :     0.665712
 43 H s       :     0.664309  s :     0.664309


                      *****************************
                      * MAYER POPULATION ANALYSIS *
                      *****************************

  NA   - Mulliken gross atomic population
  ZA   - Total nuclear charge
  QA   - Mulliken gross atomic charge
  VA   - Mayer's total valence
  BVA  - Mayer's bonded valence
  FA   - Mayer's free valence

  ATOM       NA         ZA         QA         VA         BVA        FA
  0 S     14.7420    16.0000     1.2580     5.5892     5.5892    -0.0000
  1 O      8.6215     8.0000    -0.6215     1.7965     1.7965    -0.0000
  2 O      8.6648     8.0000    -0.6648     1.8112     1.8112     0.0000
  3 O      8.5864     8.0000    -0.5864     1.8427     1.8427     0.0000
  4 O      8.6189     8.0000    -0.6189     1.9412     1.9412    -0.0000
  5 H      0.5427     1.0000     0.4573     0.7776     0.7776    -0.0000
  6 S     14.8150    16.0000     1.1850     5.6157     5.6157    -0.0000
  7 O      8.6948     8.0000    -0.6948     1.7050     1.7050    -0.0000
  8 O      8.5610     8.0000    -0.5610     1.8861     1.8861    -0.0000
  9 O      8.5601     8.0000    -0.5601     1.9102     1.9102    -0.0000
 10 O      8.6573     8.0000    -0.6573     1.7599     1.7599    -0.0000
 11 H      0.5634     1.0000     0.4366     0.8342     0.8342    -0.0000
 12 S     14.7261    16.0000     1.2739     5.5796     5.5796     0.0000
 13 O      8.6011     8.0000    -0.6011     1.7928     1.7928    -0.0000
 14 O      8.5654     8.0000    -0.5654     1.7904     1.7904     0.0000
 15 O      8.7212     8.0000    -0.7212     1.8601     1.8601    -0.0000
 16 O      8.6146     8.0000    -0.6146     1.9295     1.9295     0.0000
 17 H      0.5429     1.0000     0.4571     0.7779     0.7779    -0.0000
 18 S     14.7787    16.0000     1.2213     5.7047     5.7047    -0.0000
 19 O      8.6591     8.0000    -0.6591     1.7994     1.7994    -0.0000
 20 O      8.7229     8.0000    -0.7229     1.8357     1.8357    -0.0000
 21 O      8.4383     8.0000    -0.4383     2.0545     2.0545    -0.0000
 22 O      8.6966     8.0000    -0.6966     1.7557     1.7557    -0.0000
 23 H      0.5640     1.0000     0.4360     0.8358     0.8358    -0.0000
 24 N      7.8239     7.0000    -0.8239     3.0137     3.0137    -0.0000
 25 H      0.6005     1.0000     0.3995     0.8662     0.8662     0.0000
 26 H      0.5429     1.0000     0.4571     0.8069     0.8069     0.0000
 27 H      0.5951     1.0000     0.4049     0.8549     0.8549     0.0000
 28 H      0.6209     1.0000     0.3791     0.8427     0.8427     0.0000
 29 N      7.7937     7.0000    -0.7937     3.1614     3.1614     0.0000
 30 H      0.6074     1.0000     0.3926     0.8516     0.8516    -0.0000
 31 H      0.5491     1.0000     0.4509     0.7803     0.7803    -0.0000
 32 H      0.5891     1.0000     0.4109     0.8540     0.8540    -0.0000
 33 H      0.6106     1.0000     0.3894     0.8438     0.8438    -0.0000
 34 N      7.7755     7.0000    -0.7755     3.0038     3.0038     0.0000
 35 H      0.6045     1.0000     0.3955     0.8691     0.8691     0.0000
 36 H      0.5747     1.0000     0.4253     0.8289     0.8289     0.0000
 37 H      0.6289     1.0000     0.3711     0.8442     0.8442    -0.0000
 38 H      0.6006     1.0000     0.3994     0.8685     0.8685     0.0000
 39 N      7.7716     7.0000    -0.7716     3.0038     3.0038     0.0000
 40 H      0.6226     1.0000     0.3774     0.8384     0.8384     0.0000
 41 H      0.6080     1.0000     0.3920     0.8762     0.8762     0.0000
 42 H      0.6194     1.0000     0.3806     0.8926     0.8926     0.0000
 43 H      0.6023     1.0000     0.3977     0.8682     0.8682     0.0000

  Mayer bond orders larger than 0.100000
B(  0-S ,  1-O ) :   1.5131 B(  0-S ,  2-O ) :   1.3851 B(  0-S ,  3-O ) :   1.5822 
B(  0-S ,  4-O ) :   1.0969 B(  1-O , 23-H ) :   0.1405 B(  2-O , 25-H ) :   0.1351 
B(  2-O , 41-H ) :   0.1546 B(  4-O ,  5-H ) :   0.7300 B(  6-S ,  7-O ) :   1.3352 
B(  6-S ,  8-O ) :   1.6270 B(  6-S ,  9-O ) :   1.6445 B(  6-S , 10-O ) :   0.9887 
B(  8-O , 43-H ) :   0.1219 B(  9-O , 27-H ) :   0.1186 B( 10-O , 11-H ) :   0.6584 
B( 11-H , 13-O ) :   0.1256 B( 12-S , 13-O ) :   1.5204 B( 12-S , 14-O ) :   1.6015 
B( 12-S , 15-O ) :   1.3626 B( 12-S , 16-O ) :   1.0800 B( 15-O , 35-H ) :   0.1514 
B( 15-O , 42-H ) :   0.1324 B( 16-O , 17-H ) :   0.7298 B( 18-S , 19-O ) :   1.4669 
B( 18-S , 20-O ) :   1.3753 B( 18-S , 21-O ) :   1.9316 B( 18-S , 22-O ) :   0.9188 
B( 20-O , 32-H ) :   0.1371 B( 20-O , 38-H ) :   0.1562 B( 22-O , 23-H ) :   0.6518 
B( 24-N , 25-H ) :   0.7258 B( 24-N , 26-H ) :   0.7005 B( 24-N , 27-H ) :   0.7271 
B( 24-N , 28-H ) :   0.8310 B( 29-N , 30-H ) :   0.7952 B( 29-N , 31-H ) :   0.7845 
B( 29-N , 32-H ) :   0.7037 B( 29-N , 33-H ) :   0.8142 B( 34-N , 35-H ) :   0.7060 
B( 34-N , 36-H ) :   0.7525 B( 34-N , 37-H ) :   0.8422 B( 34-N , 38-H ) :   0.6939 
B( 39-N , 40-H ) :   0.8395 B( 39-N , 41-H ) :   0.7147 B( 39-N , 42-H ) :   0.7309 
B( 39-N , 43-H ) :   0.7257 

-------
TIMINGS
-------

Total SCF time: 0 days 0 hours 2 min 51 sec 

Total time                  ....     171.195 sec
Sum of individual times     ....     169.718 sec  ( 99.1%)

Fock matrix formation       ....     159.352 sec  ( 93.1%)
  Split-RI-J                ....      47.607 sec  ( 29.9% of F)
  XC integration            ....     111.717 sec  ( 70.1% of F)
    Basis function eval.    ....      22.887 sec  ( 20.5% of XC)
    Density eval.           ....      52.763 sec  ( 47.2% of XC)
    XC-Functional eval.     ....       3.589 sec  (  3.2% of XC)
    XC-Potential eval.      ....      29.299 sec  ( 26.2% of XC)
Diagonalization             ....       2.606 sec  (  1.5%)
Density matrix formation    ....       0.146 sec  (  0.1%)
Population analysis         ....       0.200 sec  (  0.1%)
Initial guess               ....       0.323 sec  (  0.2%)
Orbital Transformation      ....       0.000 sec  (  0.0%)
Orbital Orthonormalization  ....       0.000 sec  (  0.0%)
DIIS solution               ....       1.067 sec  (  0.6%)
SOSCF solution              ....       1.065 sec  (  0.6%)
Grid generation             ....       4.960 sec  (  2.9%)

Maximum memory used throughout the entire SCF-calculation: 306.8 MB


-------------------------------------------------------------------------------
                          DFT DISPERSION CORRECTION                            
                                                                               
                              DFTD3 V3.1  Rev 1                                
                          USING Becke-Johnson damping                          
-------------------------------------------------------------------------------
The B97-3c composite method is recognized
Using three-body term ABC
Active option DFTDOPT                   ...         4   

molecular C6(AA) [au] = 22563.484481 


            DFT-D V3
 parameters
 s6 scaling factor         :     1.0000 
 a1 scaling factor         :     0.3700 
 s8 scaling factor         :     1.5000 
 a2 scaling factor         :     4.1000 
 Damping factor alpha9(ATM):    16.0000 
 ad hoc parameters k1-k3   :    16.0000     1.3333    -4.0000 

 Edisp/kcal,au: -83.265035147795  -0.132691265562 
 E6   /kcal   : -44.261496701 
 E8   /kcal   : -39.935527099 
 E6(ABC)      :   0.931988653 
 % E8         :  47.961941082 
 % E6(ABC)    :  -1.119303740 

-------------------------   ----------------
Dispersion correction           -0.132691266
-------------------------   ----------------

------------------   -----------------
SRB correction            -0.142422661
------------------   -----------------

-------------------------   --------------------
FINAL SINGLE POINT ENERGY     -3026.645060020763
-------------------------   --------------------

------------------------------------------------------------------------------
                         ORCA SCF GRADIENT CALCULATION
------------------------------------------------------------------------------

Gradient of the Kohn-Sham DFT energy:
Kohn-Sham wavefunction type      ... RKS
Hartree-Fock exchange scaling    ...    0.000
Number of operators              ...    1
Number of atoms                  ...   44
Basis set dimensions             ...  608
Integral neglect threshold       ... 2.5e-11
Integral primitive cutoff        ... 2.5e-12
SHARK Integral package           ... ON

Nuc. rep. gradient       (SHARK) ... done (  0.0 sec)
HCore & Overlap gradient (SHARK) ... done (  4.6 sec)
RI-J gradient            (SHARK) ... done ( 12.1 sec)
Exchange-correlation gradient    ... done
Dispersion correction            ... done
SRB correction                   ... done

------------------
CARTESIAN GRADIENT
------------------

   1   S   :   -0.012733920    0.004261330    0.006614627
   2   O   :   -0.026279998    0.006610217   -0.036853378
   3   O   :    0.040290036    0.018205185   -0.003984640
   4   O   :   -0.004136983   -0.033304707    0.024278292
   5   O   :   -0.008942751    0.006606332    0.018779564
   6   H   :   -0.000112048    0.003399317   -0.002915542
   7   S   :    0.004454562   -0.018414683    0.005591435
   8   O   :   -0.034679250   -0.007190665    0.013135203
   9   O   :    0.029880354    0.019402429    0.032704482
  10   O   :    0.003715821    0.015896883   -0.046994314
  11   O   :    0.011753936   -0.011884035   -0.009088107
  12   H   :   -0.001944169   -0.001739705    0.003228705
  13   S   :    0.004050177   -0.019484361   -0.012468405
  14   O   :    0.046518794    0.016011491   -0.002701198
  15   O   :   -0.017964661   -0.015379578   -0.027878809
  16   O   :   -0.024231776    0.021679635    0.031274704
  17   O   :   -0.002990291   -0.012882172    0.018898558
  18   H   :    0.002875279   -0.001100449   -0.002965733
  19   S   :   -0.006186029    0.022490789    0.005218248
  20   O   :    0.029282209    0.020416504   -0.010289184
  21   O   :    0.008660879   -0.039744511    0.017915937
  22   O   :   -0.035621365   -0.003416981   -0.033671784
  23   O   :   -0.011960197    0.003129708    0.012539237
  24   H   :    0.003137157    0.002598409   -0.000575839
  25   N   :   -0.000803042    0.001932662   -0.003372674
  26   H   :    0.001381342    0.003673355    0.000356719
  27   H   :   -0.001736278   -0.001373742   -0.002631269
  28   H   :    0.003683802   -0.000355710   -0.002943612
  29   H   :   -0.000586332    0.002282180   -0.001142443
  30   N   :    0.002255746   -0.007358052   -0.004846118
  31   H   :   -0.000025193    0.000966141   -0.000559291
  32   H   :   -0.000347047    0.001961002    0.000896763
  33   H   :   -0.002511694   -0.000573667   -0.001039868
  34   H   :    0.000337377   -0.000065151   -0.001551923
  35   N   :   -0.001142321   -0.000534977    0.002532090
  36   H   :    0.000043578    0.000222069    0.004382195
  37   H   :    0.000418815    0.000472126    0.000639325
  38   H   :   -0.001717362   -0.001514838    0.001454965
  39   H   :   -0.001365354   -0.002252730   -0.002103236
  40   N   :   -0.000291415   -0.000582077    0.003213510
  41   H   :    0.000578617    0.000529313    0.002888738
  42   H   :    0.001444148    0.003695365    0.000800442
  43   H   :   -0.000665109   -0.000358990    0.004086349
  44   H   :    0.004211956    0.003069340   -0.000852717

Difference to translation invariance:
           :    0.0000000000   -0.0000000000   -0.0000000000

Difference to rotation invariance:
           :   -0.0002669775   -0.0001177823   -0.0005835816

Norm of the cartesian gradient     ...    0.1654644844
RMS gradient                       ...    0.0144018348
MAX gradient                       ...    0.0469943138

-------
TIMINGS
-------

Total SCF gradient time            ...       90.583 sec

One electron gradient       ....       4.640 sec  (  5.1%)
RI-J Coulomb gradient       ....      12.137 sec  ( 13.4%)
XC gradient                 ....      73.303 sec  ( 80.9%)

Maximum memory used throughout the entire SCFGRAD-calculation: 279.7 MB

                            ***************************************
                            *     ORCA property calculations      *
                            ***************************************

                                    ---------------------
                                    Active property flags
                                    ---------------------
   (+) Dipole Moment


------------------------------------------------------------------------------
                       ORCA ELECTRIC PROPERTIES CALCULATION
------------------------------------------------------------------------------

Dipole Moment Calculation                       ... on
Quadrupole Moment Calculation                   ... off
Polarizability Calculation                      ... off
GBWName                                         ... 4sa4am-44_10_537.gbw
Electron density                                ... 4sa4am-44_10_537.scfp
The origin for moment calculation is the CENTER OF MASS  = ( 0.036039,  0.023044  0.067540)

-------------
DIPOLE MOMENT
-------------
                                X             Y             Z
Electronic contribution:      0.47755       0.17119       0.21004
Nuclear contribution   :     -0.81170      -0.53545      -1.49241
                        -----------------------------------------
Total Dipole Moment    :     -0.33415      -0.36426      -1.28238
                        -----------------------------------------
Magnitude (a.u.)       :      1.37435
Magnitude (Debye)      :      3.49331



--------------------
Rotational spectrum 
--------------------
 
Rotational constants in cm-1:     0.006365     0.005022     0.004566 
Rotational constants in MHz :   190.815616   150.548447   136.892382 

 Dipole components along the rotational axes: 
x,y,z [a.u.] :    -0.441696    -0.840880     0.993306 
x,y,z [Debye]:    -1.122702    -2.137347     2.524782 

 

Timings for individual modules:

Sum of individual times         ...      263.274 sec (=   4.388 min)
GTO integral calculation        ...        1.372 sec (=   0.023 min)   0.5 %
SCF iterations                  ...      171.260 sec (=   2.854 min)  65.1 %
SCF Gradient evaluation         ...       90.642 sec (=   1.511 min)  34.4 %
                             ****ORCA TERMINATED NORMALLY****
TOTAL RUN TIME: 0 days 0 hours 4 minutes 23 seconds 891 msec
