44
Properties=species:S:1:pos:R:3 energy:=T -113.453945373302=T gnorm:=T 0.000731305089=T xtb:=T 6.4.0=T (d4b70c2)=T pbc="F F F"
S       -0.22599739      -3.86877263      -0.86564358
O       -1.66227729      -3.65111468      -0.83176210
O        0.29693773      -4.00176306      -2.21936713
O        0.54325694      -2.93874436      -0.06139722
O        0.01838653      -5.29227264      -0.13861522
H       -0.52559773      -5.94975277      -0.58607182
S        0.06915017       2.20444351       2.55749999
O        0.83828139       1.28283513       3.36013729
O       -0.39777211       1.56757872       1.30941235
O       -1.02377771       2.86120415       3.24360831
O        1.03510212       3.38508841       2.07966044
H        1.70772185       3.01329215       1.47521598
S       -2.03209053      -0.27069543      -0.53003741
O       -0.65648275      -0.23660340      -1.03069968
O       -2.07770912      -0.67797382       0.88663830
O       -2.73311066       0.98243439      -0.75885945
O       -2.80623481      -1.36429275      -1.34190886
H       -2.39527794      -2.26276221      -1.15709982
S        2.66247788       1.18887335      -0.93935111
O        1.95636378       1.08730683      -2.21630938
O        2.26699803       2.37166099      -0.19457244
O        2.63098238      -0.04663871      -0.18595971
O        4.22363950       1.38101852      -1.29627282
H        4.39304784       2.30893250      -1.49128839
N        0.63069032      -0.92470185       1.61353348
H        0.77165586      -0.32127353       2.42497089
H        0.89052294      -1.88765740       1.78155860
H       -0.35169191      -0.88715251       1.32166525
H        1.19141777      -0.55983719       0.84250450
N       -3.02912891       1.54091997       1.97781788
H       -3.87918111       1.38294475       2.49553005
H       -2.59026060       0.63182731       1.70497525
H       -3.21179921       2.00525397       1.09552070
H       -2.33862460       2.08676527       2.52525111
N        1.46137227      -1.59289294      -2.20060475
H        1.81634305      -1.08109063      -2.99554988
H        0.64116040      -1.10533562      -1.82213101
H        1.16572253      -2.55915266      -2.41598359
H        2.15149475      -1.60146418      -1.45602405
N       -0.29255168       2.38122411      -1.21266854
H       -1.23527463       2.13632656      -1.49978632
H       -0.20100113       2.08549265      -0.21745778
H        0.39453415       1.83119093      -1.73873321
H       -0.09141841       3.36533081      -1.29134514
