
                                 *****************
                                 * O   R   C   A *
                                 *****************

                                            #,                                       
                                            ###                                      
                                            ####                                     
                                            #####                                    
                                            ######                                   
                                           ########,                                 
                                     ,,################,,,,,                         
                               ,,#################################,,                 
                          ,,##########################################,,             
                       ,#########################################, ''#####,          
                    ,#############################################,,   '####,        
                  ,##################################################,,,,####,       
                ,###########''''           ''''###############################       
              ,#####''   ,,,,##########,,,,          '''####'''          '####       
            ,##' ,,,,###########################,,,                        '##       
           ' ,,###''''                  '''############,,,                           
         ,,##''                                '''############,,,,        ,,,,,,###''
      ,#''                                            '''#######################'''  
     '                                                          ''''####''''         
             ,#######,   #######,   ,#######,      ##                                
            ,#'     '#,  ##    ##  ,#'     '#,    #''#        ######   ,####,        
            ##       ##  ##   ,#'  ##            #'  '#       #        #'  '#        
            ##       ##  #######   ##           ,######,      #####,   #    #        
            '#,     ,#'  ##    ##  '#,     ,#' ,#      #,         ##   #,  ,#        
             '#######'   ##     ##  '#######'  #'      '#     #####' # '####'        



                  #######################################################
                  #                        -***-                        #
                  #          Department of theory and spectroscopy      #
                  #    Directorship and core code : Frank Neese         #
                  #        Max Planck Institute fuer Kohlenforschung    #
                  #                Kaiser Wilhelm Platz 1               #
                  #                 D-45470 Muelheim/Ruhr               #
                  #                      Germany                        #
                  #                                                     #
                  #                  All rights reserved                #
                  #                        -***-                        #
                  #######################################################


                         Program Version 5.0.3 -  RELEASE  -


 With contributions from (in alphabetic order):
   Daniel Aravena         : Magnetic Suceptibility
   Michael Atanasov       : Ab Initio Ligand Field Theory (pilot matlab implementation)
   Alexander A. Auer      : GIAO ZORA, VPT2 properties, NMR spectrum
   Ute Becker             : Parallelization
   Giovanni Bistoni       : ED, misc. LED, open-shell LED, HFLD
   Martin Brehm           : Molecular dynamics
   Dmytro Bykov           : SCF Hessian
   Vijay G. Chilkuri      : MRCI spin determinant printing, contributions to CSF-ICE
   Dipayan Datta          : RHF DLPNO-CCSD density
   Achintya Kumar Dutta   : EOM-CC, STEOM-CC
   Dmitry Ganyushin       : Spin-Orbit,Spin-Spin,Magnetic field MRCI
   Miquel Garcia          : C-PCM and meta-GGA Hessian, CC/C-PCM, Gaussian charge scheme
   Yang Guo               : DLPNO-NEVPT2, F12-NEVPT2, CIM, IAO-localization
   Andreas Hansen         : Spin unrestricted coupled pair/coupled cluster methods
   Benjamin Helmich-Paris : MC-RPA, TRAH-SCF, COSX integrals
   Lee Huntington         : MR-EOM, pCC
   Robert Izsak           : Overlap fitted RIJCOSX, COSX-SCS-MP3, EOM
   Marcus Kettner         : VPT2
   Christian Kollmar      : KDIIS, OOCD, Brueckner-CCSD(T), CCSD density, CASPT2, CASPT2-K
   Simone Kossmann        : Meta GGA functionals, TD-DFT gradient, OOMP2, MP2 Hessian
   Martin Krupicka        : Initial AUTO-CI
   Lucas Lang             : DCDCAS
   Marvin Lechner         : AUTO-CI (C++ implementation), FIC-MRCC
   Dagmar Lenk            : GEPOL surface, SMD
   Dimitrios Liakos       : Extrapolation schemes; Compound Job, initial MDCI parallelization
   Dimitrios Manganas     : Further ROCIS development; embedding schemes
   Dimitrios Pantazis     : SARC Basis sets
   Anastasios Papadopoulos: AUTO-CI, single reference methods and gradients
   Taras Petrenko         : DFT Hessian,TD-DFT gradient, ASA, ECA, R-Raman, ABS, FL, XAS/XES, NRVS
   Peter Pinski           : DLPNO-MP2, DLPNO-MP2 Gradient
   Christoph Reimann      : Effective Core Potentials
   Marius Retegan         : Local ZFS, SOC
   Christoph Riplinger    : Optimizer, TS searches, QM/MM, DLPNO-CCSD(T), (RO)-DLPNO pert. Triples
   Tobias Risthaus        : Range-separated hybrids, TD-DFT gradient, RPA, STAB
   Michael Roemelt        : Original ROCIS implementation
   Masaaki Saitow         : Open-shell DLPNO-CCSD energy and density
   Barbara Sandhoefer     : DKH picture change effects
   Avijit Sen             : IP-ROCIS
   Kantharuban Sivalingam : CASSCF convergence, NEVPT2, FIC-MRCI
   Bernardo de Souza      : ESD, SOC TD-DFT
   Georgi Stoychev        : AutoAux, RI-MP2 NMR, DLPNO-MP2 response
   Willem Van den Heuvel  : Paramagnetic NMR
   Boris Wezisla          : Elementary symmetry handling
   Frank Wennmohs         : Technical directorship


 We gratefully acknowledge several colleagues who have allowed us to
 interface, adapt or use parts of their codes:
   Stefan Grimme, W. Hujo, H. Kruse, P. Pracht,  : VdW corrections, initial TS optimization,
                  C. Bannwarth, S. Ehlert          DFT functionals, gCP, sTDA/sTD-DF
   Ed Valeev, F. Pavosevic, A. Kumar             : LibInt (2-el integral package), F12 methods
   Garnet Chan, S. Sharma, J. Yang, R. Olivares  : DMRG
   Ulf Ekstrom                                   : XCFun DFT Library
   Mihaly Kallay                                 : mrcc  (arbitrary order and MRCC methods)
   Jiri Pittner, Ondrej Demel                    : Mk-CCSD
   Frank Weinhold                                : gennbo (NPA and NBO analysis)
   Christopher J. Cramer and Donald G. Truhlar   : smd solvation model
   Lars Goerigk                                  : TD-DFT with DH, B97 family of functionals
   V. Asgeirsson, H. Jonsson                     : NEB implementation
   FAccTs GmbH                                   : IRC, NEB, NEB-TS, DLPNO-Multilevel, CI-OPT
                                                   MM, QMMM, 2- and 3-layer-ONIOM, Crystal-QMMM,
                                                   LR-CPCM, SF, NACMEs, symmetry and pop. for TD-DFT,
                                                   nearIR, NL-DFT gradient (VV10), updates on ESD,
                                                   ML-optimized integration grids
   S Lehtola, MJT Oliveira, MAL Marques          : LibXC Library
   Liviu Ungur et al                             : ANISO software


 Your calculation uses the libint2 library for the computation of 2-el integrals
 For citations please refer to: http://libint.valeyev.net

 Your ORCA version has been built with support for libXC version: 5.1.0
 For citations please refer to: https://tddft.org/programs/libxc/

 This ORCA versions uses:
   CBLAS   interface :  Fast vector & matrix operations
   LAPACKE interface :  Fast linear algebra routines
   SCALAPACK package :  Parallel linear algebra routines
   Shared memory     :  Shared parallel matrices
   BLAS/LAPACK       :  OpenBLAS 0.3.15  USE64BITINT DYNAMIC_ARCH NO_AFFINITY Prescott SINGLE_THREADED
        Core in use  :  Prescott
   Copyright (c) 2011-2014, The OpenBLAS Project




***************************************
The coordinates will be read from file: 4sa4am-44_10_152.xyz
***************************************


Your calculation utilizes the atom-pairwise dispersion correction
with the Becke-Johnson damping scheme (D3BJ)
Cite in your paper:
S.Grimme, S.Ehrlich, L.Goerigk, J Comput Chem, (2011), 32, 1456–1465 
S.Grimme, J.Antony, S.Ehrlich and H.Krieg, J.Chem.Phys., 132, (2010), 154104 
   

Your calculation employs the composite approach B97-3c by Grimme and coworkers.
For the correct reference, please check the publication list of the Grimme group:
http://www.thch.uni-bonn.de/tc/index.php?section=publikationen&subsection=grimme#2017
   

XCFun DFT library Copyright 2009-2010 Ulf Ekstrom and contributors.
See http://admol.org/xcfun for more information.
This is free software; see the source code for copying conditions.
There is ABSOLUTELY NO WARRANTY; not even for MERCHANTABILITY or FITNESS FOR A PARTICULAR PURPOSE.
For details see the documentation.
Scientific users of this library should cite U. Ekstrom, L. Visscher, R. Bast, A. J. Thorvaldsen and K. Ruud;
J.Chem.Theor.Comp. 2010, DOI: 10.1021/ct100117s
XCFun Version 0.99 

================================================================================

----- Orbital basis set information -----
Your calculation utilizes the basis: def2-mTZVP
----- AuxJ basis set information -----
Your calculation utilizes the basis: def2-mTZVP/J
================================================================================
                                        WARNINGS
                       Please study these warnings very carefully!
================================================================================


INFO   : the flag for use of the SHARK integral package has been found!

================================================================================
                                       INPUT FILE
================================================================================
NAME = 4sa4am-44_10_152.inp
|  1> ! B97-3c ENGRAD
|  2> %pal nprocs 1
|  3>     end
|  4> %Maxcore 3000.00
|  5> * xyzfile 0 1 4sa4am-44_10_152.xyz
|  6>   
|  7> 
|  8>                          ****END OF INPUT****
================================================================================

                     *******************************
                     * Energy+Gradient Calculation *
                     *******************************

---------------------------------
CARTESIAN COORDINATES (ANGSTROEM)
---------------------------------
  S      2.052559   -0.466825    0.667101
  O      2.665602   -1.425091   -0.231728
  O      0.719027   -0.072943    0.189637
  O      2.052302   -0.858348    2.061001
  O      2.929371    0.873682    0.654583
  H      2.862659    1.297021   -0.237311
  S     -2.265554    0.120769    2.484152
  O     -1.969051    1.542788    2.250415
  O     -1.028841   -0.659405    2.574269
  O     -3.208510   -0.129334    3.521081
  O     -2.945129   -0.319501    1.072005
  H     -2.754218   -1.250566    0.845288
  S      1.140379    2.658639   -1.605637
  O      0.743612    2.869460   -0.220341
  O      2.414897    1.948791   -1.722111
  O      0.103260    2.086586   -2.430701
  O      1.385333    4.118022   -2.240739
  H      2.135714    4.532160   -1.800719
  S     -1.364602   -2.308067   -1.421673
  O      0.004787   -2.802460   -1.469529
  O     -2.008049   -2.601992   -0.148957
  O     -1.477575   -0.928273   -1.849963
  O     -2.193153   -3.120206   -2.541220
  H     -2.365461   -4.012761   -2.222717
  N      1.259265   -0.568818   -2.483601
  H      0.268495   -0.467379   -2.240955
  H      1.700344    0.351801   -2.458288
  H      1.693502   -1.151835   -1.758819
  H      1.342275   -1.007175   -3.388036
  N     -1.684073    1.402990   -0.492170
  H     -2.030607    1.771745    0.394231
  H     -0.841715    0.861727   -0.289145
  H     -2.360561    0.761045   -0.890674
  H     -1.433365    2.129658   -1.154178
  N      0.209175   -2.703598    1.338605
  H     -0.424351   -3.483398    1.436959
  H     -0.273470   -1.843587    1.660773
  H      1.057692   -2.803221    1.880851
  H      0.440703   -2.582486    0.349878
  N      0.698854    1.659273    2.396499
  H      1.007383    1.976742    1.475926
  H     -0.341451    1.655720    2.404197
  H      1.015555    0.695079    2.519016
  H      1.066990    2.253571    3.122742

----------------------------
CARTESIAN COORDINATES (A.U.)
----------------------------
  NO LB      ZA    FRAG     MASS         X           Y           Z
   0 S    16.0000    0    32.060    3.878774   -0.882171    1.260638
   1 O     8.0000    0    15.999    5.037259   -2.693032   -0.437902
   2 O     8.0000    0    15.999    1.358764   -0.137843    0.358363
   3 O     8.0000    0    15.999    3.878289   -1.622042    3.894727
   4 O     8.0000    0    15.999    5.535708    1.651019    1.236982
   5 H     1.0000    0     1.008    5.409642    2.451014   -0.448454
   6 S    16.0000    0    32.060   -4.281276    0.228221    4.694367
   7 O     8.0000    0    15.999   -3.720967    2.915447    4.252668
   8 O     8.0000    0    15.999   -1.944228   -1.246095    4.864663
   9 O     8.0000    0    15.999   -6.063206   -0.244406    6.653879
  10 O     8.0000    0    15.999   -5.565488   -0.603769    2.025796
  11 H     1.0000    0     1.008   -5.204718   -2.363228    1.597363
  12 S    16.0000    0    32.060    2.155003    5.024100   -3.034214
  13 O     8.0000    0    15.999    1.405224    5.422494   -0.416384
  14 O     8.0000    0    15.999    4.563494    3.682681   -3.254318
  15 O     8.0000    0    15.999    0.195132    3.943076   -4.593359
  16 O     8.0000    0    15.999    2.617900    7.781934   -4.234383
  17 H     1.0000    0     1.008    4.035915    8.564542   -3.402865
  18 S    16.0000    0    32.060   -2.578724   -4.361615   -2.686572
  19 O     8.0000    0    15.999    0.009046   -5.295882   -2.777007
  20 O     8.0000    0    15.999   -3.794663   -4.917053   -0.281488
  21 O     8.0000    0    15.999   -2.792213   -1.754181   -3.495923
  22 O     8.0000    0    15.999   -4.144459   -5.896334   -4.802210
  23 H     1.0000    0     1.008   -4.470073   -7.583020   -4.200327
  24 N     7.0000    0    14.007    2.379665   -1.074911   -4.693326
  25 H     1.0000    0     1.008    0.507382   -0.883218   -4.234792
  26 H     1.0000    0     1.008    3.213184    0.664807   -4.645490
  27 H     1.0000    0     1.008    3.200255   -2.176653   -3.323687
  28 H     1.0000    0     1.008    2.536533   -1.903285   -6.402461
  29 N     7.0000    0    14.007   -3.182437    2.651268   -0.930066
  30 H     1.0000    0     1.008   -3.837291    3.348114    0.744989
  31 H     1.0000    0     1.008   -1.590611    1.628428   -0.546404
  32 H     1.0000    0     1.008   -4.460813    1.438167   -1.683129
  33 H     1.0000    0     1.008   -2.708667    4.024470   -2.181080
  34 N     7.0000    0    14.007    0.395283   -5.109059    2.529596
  35 H     1.0000    0     1.008   -0.801906   -6.582668    2.715458
  36 H     1.0000    0     1.008   -0.516783   -3.483875    3.138406
  37 H     1.0000    0     1.008    1.998749   -5.297320    3.554293
  38 H     1.0000    0     1.008    0.832808   -4.880191    0.661173
  39 N     7.0000    0    14.007    1.320642    3.135571    4.528728
  40 H     1.0000    0     1.008    1.903677    3.735500    2.789096
  41 H     1.0000    0     1.008   -0.645249    3.128857    4.543274
  42 H     1.0000    0     1.008    1.919121    1.313509    4.760250
  43 H     1.0000    0     1.008    2.016319    4.258633    5.901128

--------------------------------
INTERNAL COORDINATES (ANGSTROEM)
--------------------------------
 S      0   0   0     0.000000000000     0.00000000     0.00000000
 O      1   0   0     1.449824259739     0.00000000     0.00000000
 O      1   2   0     1.470176992924   111.05580352     0.00000000
 O      1   2   3     1.447841968205   114.72102711   129.15028600
 O      1   2   3     1.601846937340   108.47085812   244.31948028
 H      5   1   2     0.989515671121   109.15748884    66.90219776
 S      3   1   2     3.769621392414   122.29264687   134.62485629
 O      7   3   1     1.471286960443    78.07742579   106.73157957
 O      7   3   1     1.465008765958    48.83043247   334.99058049
 O      7   3   1     1.423706754462   163.47384726   324.19381886
 O      7   3   1     1.627826661486    77.79543050   211.97265560
 H     11   7   3     0.977103472432   112.17520731    72.96847752
 S      6   5   1     2.587000167164   138.31415004    74.78281532
 O     13   6   5     1.456335508023    75.78542691    22.94041009
 O     13   6   5     1.463505645214    37.53626287   191.02978481
 O     13   6   5     1.443465039962   124.89467456   273.48283473
 O     13   6   5     1.610328142925   125.75563262   123.33386159
 H     17  13   6     0.963431327626   109.14214347   341.13321532
 S     12  11   7     2.861547282256   129.11236144   241.18049826
 O     19  12  11     1.456688389504   127.44255914   102.29383885
 O     19  12  11     1.456098345277    33.64996964   175.04244596
 O     19  12  11     1.449147175231    81.04890471   350.42505609
 O     19  12  11     1.612281657305   119.12376393   249.83427833
 H     23  19  12     0.963218252558   109.21340066   281.64809916
 N     20  19  12     2.755215625231    99.49540606   261.71848486
 H     25  20  19     1.025081479353    63.45070582     6.72099296
 H     25  20  19     1.021142057364   156.69841263    82.30341853
 H     25  20  19     1.026537717307    58.15029413   141.34743978
 H     25  20  19     1.008489149652    90.86950176   255.20326412
 N     11   7   3     2.646484704422    97.91862246   314.16236003
 H     30  11   7     1.020672457664    63.90126730   316.83328336
 H     30  11   7     1.021641946675    86.02078543    68.39872677
 H     30  11   7     1.014167017494    60.15972737   180.61965309
 H     30  11   7     1.014472776466   165.85037293   235.93829092
 N     21  19  12     2.671936585273    97.33092819   261.39899286
 H     35  21  19     1.009513176328    64.07830098   229.93412436
 H     35  21  19     1.037475938400    75.83710633   110.76119992
 H     35  21  19     1.011897945450   176.30273251   278.65832552
 H     35  21  19     1.022670157173    69.21312315   354.98374347
 N      8   7   3     2.674439038191   103.55934019   317.91386951
 H     40   8   7     1.021485006338   105.40329507   118.14957081
 H     40   8   7     1.040339684207     4.23608757   247.20870047
 H     40   8   7     1.022242112929   105.93334431     3.91713079
 H     40   8   7     1.008039772672   115.42558634   240.80199441

---------------------------
INTERNAL COORDINATES (A.U.)
---------------------------
 S      0   0   0     0.000000000000     0.00000000     0.00000000
 O      1   0   0     2.739770793223     0.00000000     0.00000000
 O      1   2   0     2.778231885017   111.05580352     0.00000000
 O      1   2   3     2.736024805105   114.72102711   129.15028600
 O      1   2   3     3.027052020033   108.47085812   244.31948028
 H      5   1   2     1.869913623642   109.15748884    66.90219776
 S      3   1   2     7.123552060234   122.29264687   134.62485629
 O      7   3   1     2.780329419647    78.07742579   106.73157957
 O      7   3   1     2.768465351455    48.83043247   334.99058049
 O      7   3   1     2.690415860947   163.47384726   324.19381886
 O      7   3   1     3.076146583703    77.79543050   211.97265560
 H     11   7   3     1.846457967400   112.17520731    72.96847752
 S      6   5   1     4.888721824349   138.31415004    74.78281532
 O     13   6   5     2.752075269269    75.78542691    22.94041009
 O     13   6   5     2.765624864902    37.53626287   191.02978481
 O     13   6   5     2.727753609419   124.89467456   273.48283473
 O     13   6   5     3.043079175874   125.75563262   123.33386159
 H     17  13   6     1.820621358053   109.14214347   341.13321532
 S     12  11   7     5.407540682731   129.11236144   241.18049826
 O     19  12  11     2.752742118625   127.44255914   102.29383885
 O     19  12  11     2.751627096629    33.64996964   175.04244596
 O     19  12  11     2.738491288933    81.04890471   350.42505609
 O     19  12  11     3.046770783052   119.12376393   249.83427833
 H     23  19  12     1.820218704529   109.21340066   281.64809916
 N     20  19  12     5.206602971587    99.49540606   261.71848486
 H     25  20  19     1.937123260931    63.45070582     6.72099296
 H     25  20  19     1.929678832248   156.69841263    82.30341853
 H     25  20  19     1.939875151852    58.15029413   141.34743978
 H     25  20  19     1.905768301874    90.86950176   255.20326412
 N     11   7   3     5.001131308970    97.91862246   314.16236003
 H     30  11   7     1.928791417420    63.90126730   316.83328336
 H     30  11   7     1.930623486142    86.02078543    68.39872677
 H     30  11   7     1.916497917119    60.15972737   180.61965309
 H     30  11   7     1.917075717840   165.85037293   235.93829092
 N     21  19  12     5.049228393371    97.33092819   261.39899286
 H     35  21  19     1.907703431845    64.07830098   229.93412436
 H     35  21  19     1.960545394108    75.83710633   110.76119992
 H     35  21  19     1.912209992378   176.30273251   278.65832552
 H     35  21  19     1.932566522391    69.21312315   354.98374347
 N      8   7   3     5.053957344049   103.55934019   317.91386951
 H     40   8   7     1.930326911885   105.40329507   118.14957081
 H     40   8   7     1.965957089402     4.23608757   247.20870047
 H     40   8   7     1.931757635996   105.93334431     3.91713079
 H     40   8   7     1.904919102450   115.42558634   240.80199441

---------------------
BASIS SET INFORMATION
---------------------
There are 4 groups of distinct atoms

 Group   1 Type S   : 14s9p1d contracted to 5s4p1d pattern {73211/6111/1}
 Group   2 Type O   : 11s6p2d contracted to 5s3p2d pattern {62111/411/11}
 Group   3 Type H   : 5s contracted to 3s pattern {311}
 Group   4 Type N   : 11s6p1d contracted to 5s3p1d pattern {62111/411/1}

Atom   0S    basis set group =>   1
Atom   1O    basis set group =>   2
Atom   2O    basis set group =>   2
Atom   3O    basis set group =>   2
Atom   4O    basis set group =>   2
Atom   5H    basis set group =>   3
Atom   6S    basis set group =>   1
Atom   7O    basis set group =>   2
Atom   8O    basis set group =>   2
Atom   9O    basis set group =>   2
Atom  10O    basis set group =>   2
Atom  11H    basis set group =>   3
Atom  12S    basis set group =>   1
Atom  13O    basis set group =>   2
Atom  14O    basis set group =>   2
Atom  15O    basis set group =>   2
Atom  16O    basis set group =>   2
Atom  17H    basis set group =>   3
Atom  18S    basis set group =>   1
Atom  19O    basis set group =>   2
Atom  20O    basis set group =>   2
Atom  21O    basis set group =>   2
Atom  22O    basis set group =>   2
Atom  23H    basis set group =>   3
Atom  24N    basis set group =>   4
Atom  25H    basis set group =>   3
Atom  26H    basis set group =>   3
Atom  27H    basis set group =>   3
Atom  28H    basis set group =>   3
Atom  29N    basis set group =>   4
Atom  30H    basis set group =>   3
Atom  31H    basis set group =>   3
Atom  32H    basis set group =>   3
Atom  33H    basis set group =>   3
Atom  34N    basis set group =>   4
Atom  35H    basis set group =>   3
Atom  36H    basis set group =>   3
Atom  37H    basis set group =>   3
Atom  38H    basis set group =>   3
Atom  39N    basis set group =>   4
Atom  40H    basis set group =>   3
Atom  41H    basis set group =>   3
Atom  42H    basis set group =>   3
Atom  43H    basis set group =>   3
---------------------------------
AUXILIARY/J BASIS SET INFORMATION
---------------------------------
There are 4 groups of distinct atoms

 Group   1 Type S   : 14s5p5d2f1g contracted to 8s4p3d1f1g pattern {71111111/2111/311/2/1}
 Group   2 Type O   : 8s3p3d contracted to 6s3p3d pattern {311111/111/111}
 Group   3 Type H   : 5s2p contracted to 3s1p pattern {311/2}
 Group   4 Type N   : 8s3p3d contracted to 6s3p3d pattern {311111/111/111}

Atom   0S    basis set group =>   1
Atom   1O    basis set group =>   2
Atom   2O    basis set group =>   2
Atom   3O    basis set group =>   2
Atom   4O    basis set group =>   2
Atom   5H    basis set group =>   3
Atom   6S    basis set group =>   1
Atom   7O    basis set group =>   2
Atom   8O    basis set group =>   2
Atom   9O    basis set group =>   2
Atom  10O    basis set group =>   2
Atom  11H    basis set group =>   3
Atom  12S    basis set group =>   1
Atom  13O    basis set group =>   2
Atom  14O    basis set group =>   2
Atom  15O    basis set group =>   2
Atom  16O    basis set group =>   2
Atom  17H    basis set group =>   3
Atom  18S    basis set group =>   1
Atom  19O    basis set group =>   2
Atom  20O    basis set group =>   2
Atom  21O    basis set group =>   2
Atom  22O    basis set group =>   2
Atom  23H    basis set group =>   3
Atom  24N    basis set group =>   4
Atom  25H    basis set group =>   3
Atom  26H    basis set group =>   3
Atom  27H    basis set group =>   3
Atom  28H    basis set group =>   3
Atom  29N    basis set group =>   4
Atom  30H    basis set group =>   3
Atom  31H    basis set group =>   3
Atom  32H    basis set group =>   3
Atom  33H    basis set group =>   3
Atom  34N    basis set group =>   4
Atom  35H    basis set group =>   3
Atom  36H    basis set group =>   3
Atom  37H    basis set group =>   3
Atom  38H    basis set group =>   3
Atom  39N    basis set group =>   4
Atom  40H    basis set group =>   3
Atom  41H    basis set group =>   3
Atom  42H    basis set group =>   3
Atom  43H    basis set group =>   3
------------------------------------------------------------------------------
                           ORCA GTO INTEGRAL CALCULATION
                           -- RI-GTO INTEGRALS CHOSEN --
------------------------------------------------------------------------------
------------------------------------------------------------------------------
                   ___                                                        
                  /   \      - P O W E R E D   B Y -                         
                 /     \                                                     
                 |  |  |   _    _      __       _____    __    __             
                 |  |  |  | |  | |    /  \     |  _  \  |  |  /  |          
                  \  \/   | |  | |   /    \    | | | |  |  | /  /          
                 / \  \   | |__| |  /  /\  \   | |_| |  |  |/  /          
                |  |  |   |  __  | /  /__\  \  |    /   |      \           
                |  |  |   | |  | | |   __   |  |    \   |  |\   \          
                \     /   | |  | | |  |  |  |  | |\  \  |  | \   \       
                 \___/    |_|  |_| |__|  |__|  |_| \__\ |__|  \__/        
                                                                              
                      - O R C A' S   B I G   F R I E N D -                    
                                      &                                       
                       - I N T E G R A L  F E E D E R -                       
                                                                              
 v1 FN, 2020, v2 2021                                                         
------------------------------------------------------------------------------


Reading SHARK input file 4sa4am-44_10_152.SHARKINP.tmp ... ok
----------------------
SHARK INTEGRAL PACKAGE
----------------------

Number of atoms                             ...     44
Number of basis functions                   ...    608
Number of shells                            ...    296
Maximum angular momentum                    ...      2
Integral batch strategy                     ... SHARK/LIBINT Hybrid
RI-J (if used) integral strategy            ... SPLIT-RIJ (Revised 2003 algorithm where possible)
Printlevel                                  ...      1
Contraction scheme used                     ... SEGMENTED contraction
Coulomb Range Separation                    ... NOT USED
Exchange Range Separation                   ... NOT USED
Finite Nucleus Model                        ... NOT USED
Auxiliary Coulomb fitting basis             ... AVAILABLE
   # of basis functions in Aux-J            ...    924
   # of shells in Aux-J                     ...    388
   Maximum angular momentum in Aux-J        ...      4
Auxiliary J/K fitting basis                 ... NOT available
Auxiliary Correlation fitting basis         ... NOT available
Auxiliary 'external' fitting basis          ... NOT available
Integral threshold                          ...     2.500000e-11
Primitive cut-off                           ...     2.500000e-12
Primitive pair pre-selection threshold      ...     2.500000e-12

Calculating pre-screening integrals         ... done (  0.2 sec) Dimension = 296
Organizing shell pair data                  ... done (  0.4 sec)
Shell pair information
Total number of shell pairs                 ...     43956
Shell pairs after pre-screening             ...     32125
Total number of primitive shell pairs       ...    164538
Primitive shell pairs kept                  ...     72538
          la=0 lb=0:  10918 shell pairs
          la=1 lb=0:  10024 shell pairs
          la=1 lb=1:   2329 shell pairs
          la=2 lb=0:   5630 shell pairs
          la=2 lb=1:   2527 shell pairs
          la=2 lb=2:    697 shell pairs

Calculating one electron integrals          ... done (  0.2 sec)
Calculating RI/J V-Matrix + Cholesky decomp.... done (  0.1 sec)
Calculating Nuclear repulsion               ... done (  0.0 sec) ENN=   4029.329382272079 Eh

SHARK setup successfully completed in   1.3 seconds

Maximum memory used throughout the entire GTOINT-calculation: 231.8 MB
-------------------------------------------------------------------------------
                                 ORCA SCF
-------------------------------------------------------------------------------

------------
SCF SETTINGS
------------
Hamiltonian:
 Density Functional     Method          .... DFT(GTOs)
 Exchange Functional    Exchange        .... B973C
 Correlation Functional Correlation     .... B973C
 Gradients option       PostSCFGGA      .... off
   Density functional embedding theory  .... OFF
 RI-approximation to the Coulomb term is turned on
   Number of AuxJ basis functions       .... 924


General Settings:
 Integral files         IntName         .... 4sa4am-44_10_152
 Hartree-Fock type      HFTyp           .... RHF
 Total Charge           Charge          ....    0
 Multiplicity           Mult            ....    1
 Number of Electrons    NEL             ....  240
 Basis Dimension        Dim             ....  608
 Nuclear Repulsion      ENuc            ....   4029.3293822721 Eh

Convergence Acceleration:
 DIIS                   CNVDIIS         .... on
   Start iteration      DIISMaxIt       ....    12
   Startup error        DIISStart       ....  0.200000
   # of expansion vecs  DIISMaxEq       ....     5
   Bias factor          DIISBfac        ....   1.050
   Max. coefficient     DIISMaxC        ....  10.000
 Trust-Rad. Augm. Hess. CNVTRAH         .... auto
   Auto Start mean grad. ratio tolernc. ....  1.125000
   Auto Start start iteration           ....    20
   Auto Start num. interpolation iter.  ....    10
   Max. Number of Micro iterations      ....    16
   Max. Number of Macro iterations      .... Maxiter - #DIIS iter
   Number of Davidson start vectors     ....     2
   Converg. threshold I  (grad. norm)   ....   1.000e-05
   Converg. threshold II (energy diff.) ....   1.000e-08
   Grad. Scal. Fac. for Micro threshold ....   0.100
   Minimum threshold for Micro iter.    ....   0.010
   NR start threshold (gradient norm)   ....   0.001
   Initial trust radius                 ....   0.400
   Minimum AH scaling param. (alpha)    ....   1.000
   Maximum AH scaling param. (alpha)    .... 1000.000
   Orbital update algorithm             .... Taylor
   White noise on init. David. guess    .... on
   Maximum white noise                  ....   0.010
   Quad. conv. algorithm                .... NR
   COSX micro iterations for RIJONX calc.... off
 SOSCF                  CNVSOSCF        .... on
   Start iteration      SOSCFMaxIt      ....   150
   Startup grad/error   SOSCFStart      ....  0.003300
 Level Shifting         CNVShift        .... on
   Level shift para.    LevelShift      ....    0.2500
   Turn off err/grad.   ShiftErr        ....    0.0010
 Zerner damping         CNVZerner       .... off
 Static damping         CNVDamp         .... on
   Fraction old density DampFac         ....    0.7000
   Max. Damping (<1)    DampMax         ....    0.9800
   Min. Damping (>=0)   DampMin         ....    0.0000
   Turn off err/grad.   DampErr         ....    0.1000
 Fernandez-Rico         CNVRico         .... off

SCF Procedure:
 Maximum # iterations   MaxIter         ....   125
 SCF integral mode      SCFMode         .... Direct
   Integral package                     .... SHARK and LIBINT hybrid scheme
 Reset frequency        DirectResetFreq ....    20
 Integral Threshold     Thresh          ....  2.500e-11 Eh
 Primitive CutOff       TCut            ....  2.500e-12 Eh

Convergence Tolerance:
 Convergence Check Mode ConvCheckMode   .... Total+1el-Energy
 Convergence forced     ConvForced      .... 0
 Energy Change          TolE            ....  1.000e-08 Eh
 1-El. energy change                    ....  1.000e-05 Eh
 Orbital Gradient       TolG            ....  1.000e-05
 Orbital Rotation angle TolX            ....  1.000e-05
 DIIS Error             TolErr          ....  5.000e-07


Diagonalization of the overlap matrix:
Smallest eigenvalue                        ... 1.569e-04
Time for diagonalization                   ...    0.125 sec
Threshold for overlap eigenvalues          ... 1.000e-08
Number of eigenvalues below threshold      ... 0
Time for construction of square roots      ...    0.098 sec
Total time needed                          ...    0.223 sec

--------------------------------
INITIAL GUESS: MINIMAL BASIS EHT
--------------------------------
The minimal basis has 156 functions
EHT matrix was diagonalized
Basis set overlap was calculated now projecting the orbitals
Using GuessMode=FMatrix for the initial guess
C*T matrix was formed
Effective Fockian was calculated
Effective Fockian was diagonalized
Initial density was built
                      ------------------
                      INITIAL GUESS DONE
                      ------------------
-------------------
DFT GRID GENERATION
-------------------

General Integration Accuracy     IntAcc      ... 4.388
Radial Grid Type                 RadialGrid  ... OptM3 with GC (2021)
Angular Grid (max. ang.)         AngularGrid ... 4 (Lebedev-302)
Angular grid pruning method      GridPruning ... 4 (adaptive)
Weight generation scheme         WeightScheme... Becke
Basis function cutoff            BFCut       ... 1.0000e-11
Integration weight cutoff        WCut        ... 1.0000e-14
Angular grids for H and He will be reduced by one unit
Partially contracted basis set               ... off
Rotationally invariant grid construction     ... off

Total number of grid points                  ...   216655
Total number of batches                      ...     3408
Average number of points per batch           ...       63
Average number of grid points per atom       ...     4924
Time for grid setup =    4.866 sec

--------------
SCF ITERATIONS
--------------
ITER       Energy         Delta-E        Max-DP      RMS-DP      [F,P]     Damp
               ***  Starting incremental Fock matrix formation  ***
  0  -3015.0493764640   0.000000000000 0.69332796  0.00570264  0.8469827 0.7000
  1  -3019.3019544843  -4.252578020323 0.16997157  0.00240554  0.5998944 0.7000
  2  -3021.2384998046  -1.936545320269 0.12849999  0.00147631  0.4111570 0.7000
  3  -3022.7657344948  -1.527234690207 0.11002705  0.00115383  0.2746345 0.7000
                               ***Turning on DIIS***
  4  -3023.8485364168  -1.082801922018 0.08072854  0.00085918  0.1824250 0.7000
  5  -3024.6004718395  -0.751935422661 0.05590352  0.00063221  0.1226167 0.7000
  6  -3025.1255885621  -0.525116722681 0.13411582  0.00151908  0.0857487 0.0000
  7  -3026.3535759354  -1.227987373278 0.00294380  0.00004965  0.0042425 0.0000
  8  -3026.3535171170   0.000058818433 0.00130888  0.00001943  0.0055107 0.0000
                      *** Initiating the SOSCF procedure ***
                           *** Shutting down DIIS ***
                      *** Re-Reading the Fockian *** 
                      *** Removing any level shift *** 
ITER      Energy       Delta-E        Grad      Rot      Max-DP    RMS-DP
  9  -3026.35370490  -0.0001877810  0.000126  0.000126  0.000443  0.000008
               *** Restarting incremental Fock matrix formation ***
 10  -3026.35371610  -0.0000112040  0.000072  0.000219  0.000422  0.000006
 11  -3026.35371393   0.0000021716  0.000172  0.000142  0.000254  0.000004
 12  -3026.35371663  -0.0000026978  0.000007  0.000019  0.000040  0.000001
 13  -3026.35371659   0.0000000403  0.000015  0.000014  0.000030  0.000000
                  ***Gradient check signals convergence***
              ***Rediagonalizing the Fockian in SOSCF/NRSCF***

               *****************************************************
               *                     SUCCESS                       *
               *           SCF CONVERGED AFTER  14 CYCLES          *
               *****************************************************


----------------
TOTAL SCF ENERGY
----------------

Total Energy       :        -3026.35371663 Eh          -82351.27129 eV

Components:
Nuclear Repulsion  :         4029.32938227 Eh          109643.62667 eV
Electronic Energy  :        -7055.68309890 Eh         -191994.89795 eV
One Electron Energy:       -12207.10181529 Eh         -332172.12770 eV
Two Electron Energy:         5151.41871639 Eh          140177.22975 eV

Virial components:
Potential Energy   :        -6045.84888800 Eh         -164515.91207 eV
Kinetic Energy     :         3019.49517137 Eh           82164.64078 eV
Virial Ratio       :            2.00227142


DFT components:
N(Alpha)           :      119.999838206664 electrons
N(Beta)            :      119.999838206664 electrons
N(Total)           :      239.999676413329 electrons
E(XC)              :     -275.132489881279 Eh       
DFET-embed. en.    :        0.000000000000 Eh       

---------------
SCF CONVERGENCE
---------------

  Last Energy change         ...   -4.1531e-08  Tolerance :   1.0000e-08
  Last MAX-Density change    ...    1.6569e-05  Tolerance :   1.0000e-07
  Last RMS-Density change    ...    2.5132e-07  Tolerance :   5.0000e-09
  Last Orbital Gradient      ...    2.3509e-06  Tolerance :   1.0000e-05
  Last Orbital Rotation      ...    3.3328e-06  Tolerance :   1.0000e-05

             **** THE GBW FILE WAS UPDATED (4sa4am-44_10_152.gbw) ****
             **** DENSITY 4sa4am-44_10_152.scfp WAS UPDATED ****
             **** ENERGY FILE WAS UPDATED (4sa4am-44_10_152.en.tmp) ****
             **** THE GBW FILE WAS UPDATED (4sa4am-44_10_152.gbw) ****
             **** DENSITY 4sa4am-44_10_152.scfp WAS UPDATED ****
----------------
ORBITAL ENERGIES
----------------

  NO   OCC          E(Eh)            E(eV) 
   0   2.0000     -88.278943     -2402.1922 
   1   2.0000     -88.277274     -2402.1467 
   2   2.0000     -88.267391     -2401.8778 
   3   2.0000     -88.254444     -2401.5255 
   4   2.0000     -18.797451      -511.5047 
   5   2.0000     -18.796099      -511.4679 
   6   2.0000     -18.773983      -510.8661 
   7   2.0000     -18.765226      -510.6278 
   8   2.0000     -18.755219      -510.3554 
   9   2.0000     -18.748606      -510.1755 
  10   2.0000     -18.746542      -510.1193 
  11   2.0000     -18.746035      -510.1055 
  12   2.0000     -18.742667      -510.0139 
  13   2.0000     -18.742445      -510.0079 
  14   2.0000     -18.739565      -509.9295 
  15   2.0000     -18.737118      -509.8629 
  16   2.0000     -18.736749      -509.8529 
  17   2.0000     -18.734445      -509.7902 
  18   2.0000     -18.725900      -509.5576 
  19   2.0000     -18.712920      -509.2044 
  20   2.0000     -14.078990      -383.1088 
  21   2.0000     -14.075412      -383.0114 
  22   2.0000     -14.071137      -382.8951 
  23   2.0000     -14.070021      -382.8647 
  24   2.0000      -7.940059      -216.0600 
  25   2.0000      -7.938299      -216.0121 
  26   2.0000      -7.928612      -215.7485 
  27   2.0000      -7.915438      -215.3900 
  28   2.0000      -5.970727      -162.4718 
  29   2.0000      -5.969129      -162.4282 
  30   2.0000      -5.967558      -162.3855 
  31   2.0000      -5.967373      -162.3805 
  32   2.0000      -5.965707      -162.3351 
  33   2.0000      -5.965579      -162.3317 
  34   2.0000      -5.959120      -162.1559 
  35   2.0000      -5.956510      -162.0849 
  36   2.0000      -5.955711      -162.0631 
  37   2.0000      -5.946331      -161.8079 
  38   2.0000      -5.943349      -161.7267 
  39   2.0000      -5.942110      -161.6930 
  40   2.0000      -1.101634       -29.9770 
  41   2.0000      -1.099216       -29.9112 
  42   2.0000      -1.090306       -29.6687 
  43   2.0000      -1.074547       -29.2399 
  44   2.0000      -0.972808       -26.4715 
  45   2.0000      -0.970845       -26.4180 
  46   2.0000      -0.955570       -26.0024 
  47   2.0000      -0.946576       -25.7576 
  48   2.0000      -0.943315       -25.6689 
  49   2.0000      -0.941304       -25.6142 
  50   2.0000      -0.939924       -25.5766 
  51   2.0000      -0.938258       -25.5313 
  52   2.0000      -0.934410       -25.4266 
  53   2.0000      -0.927700       -25.2440 
  54   2.0000      -0.925357       -25.1802 
  55   2.0000      -0.918658       -24.9980 
  56   2.0000      -0.905871       -24.6500 
  57   2.0000      -0.903746       -24.5922 
  58   2.0000      -0.899293       -24.4710 
  59   2.0000      -0.897737       -24.4287 
  60   2.0000      -0.606238       -16.4966 
  61   2.0000      -0.604131       -16.4392 
  62   2.0000      -0.584421       -15.9029 
  63   2.0000      -0.580392       -15.7933 
  64   2.0000      -0.532768       -14.4974 
  65   2.0000      -0.529880       -14.4188 
  66   2.0000      -0.527601       -14.3568 
  67   2.0000      -0.524456       -14.2712 
  68   2.0000      -0.521830       -14.1997 
  69   2.0000      -0.519748       -14.1431 
  70   2.0000      -0.518257       -14.1025 
  71   2.0000      -0.516793       -14.0627 
  72   2.0000      -0.514638       -14.0040 
  73   2.0000      -0.512215       -13.9381 
  74   2.0000      -0.510079       -13.8799 
  75   2.0000      -0.504127       -13.7180 
  76   2.0000      -0.495945       -13.4954 
  77   2.0000      -0.493385       -13.4257 
  78   2.0000      -0.476853       -12.9758 
  79   2.0000      -0.467029       -12.7085 
  80   2.0000      -0.453179       -12.3316 
  81   2.0000      -0.448835       -12.2134 
  82   2.0000      -0.447366       -12.1735 
  83   2.0000      -0.443514       -12.0686 
  84   2.0000      -0.439920       -11.9708 
  85   2.0000      -0.434531       -11.8242 
  86   2.0000      -0.430615       -11.7176 
  87   2.0000      -0.411625       -11.2009 
  88   2.0000      -0.404239       -10.9999 
  89   2.0000      -0.400783       -10.9059 
  90   2.0000      -0.388531       -10.5725 
  91   2.0000      -0.378716       -10.3054 
  92   2.0000      -0.343889        -9.3577 
  93   2.0000      -0.340091        -9.2543 
  94   2.0000      -0.336038        -9.1441 
  95   2.0000      -0.332974        -9.0607 
  96   2.0000      -0.330088        -8.9822 
  97   2.0000      -0.327516        -8.9122 
  98   2.0000      -0.323606        -8.8058 
  99   2.0000      -0.322058        -8.7636 
 100   2.0000      -0.321359        -8.7446 
 101   2.0000      -0.319977        -8.7070 
 102   2.0000      -0.313719        -8.5367 
 103   2.0000      -0.311849        -8.4858 
 104   2.0000      -0.307526        -8.3682 
 105   2.0000      -0.303006        -8.2452 
 106   2.0000      -0.301345        -8.2000 
 107   2.0000      -0.295771        -8.0483 
 108   2.0000      -0.282865        -7.6971 
 109   2.0000      -0.280999        -7.6464 
 110   2.0000      -0.274944        -7.4816 
 111   2.0000      -0.267269        -7.2728 
 112   2.0000      -0.263868        -7.1802 
 113   2.0000      -0.261636        -7.1195 
 114   2.0000      -0.253836        -6.9072 
 115   2.0000      -0.251642        -6.8475 
 116   2.0000      -0.251374        -6.8402 
 117   2.0000      -0.243744        -6.6326 
 118   2.0000      -0.237618        -6.4659 
 119   2.0000      -0.225867        -6.1461 
 120   0.0000      -0.018128        -0.4933 
 121   0.0000      -0.003556        -0.0968 
 122   0.0000       0.007348         0.2000 
 123   0.0000       0.013450         0.3660 
 124   0.0000       0.016729         0.4552 
 125   0.0000       0.030012         0.8167 
 126   0.0000       0.044661         1.2153 
 127   0.0000       0.051879         1.4117 
 128   0.0000       0.056614         1.5405 
 129   0.0000       0.058015         1.5787 
 130   0.0000       0.062431         1.6988 
 131   0.0000       0.068466         1.8630 
 132   0.0000       0.071357         1.9417 
 133   0.0000       0.077229         2.1015 
 134   0.0000       0.081492         2.2175 
 135   0.0000       0.083237         2.2650 
 136   0.0000       0.084771         2.3067 
 137   0.0000       0.089103         2.4246 
 138   0.0000       0.095757         2.6057 
 139   0.0000       0.102194         2.7808 
 140   0.0000       0.104658         2.8479 
 141   0.0000       0.110356         3.0029 
 142   0.0000       0.114462         3.1147 
 143   0.0000       0.120755         3.2859 
 144   0.0000       0.125348         3.4109 
 145   0.0000       0.132479         3.6049 
 146   0.0000       0.136769         3.7217 
 147   0.0000       0.139204         3.7879 
 148   0.0000       0.144580         3.9342 
 149   0.0000       0.147941         4.0257 
 150   0.0000       0.153747         4.1837 
 151   0.0000       0.156547         4.2599 
 152   0.0000       0.159536         4.3412 
 153   0.0000       0.163126         4.4389 
 154   0.0000       0.165258         4.4969 
 155   0.0000       0.167358         4.5540 
 156   0.0000       0.171061         4.6548 
 157   0.0000       0.177077         4.8185 
 158   0.0000       0.181725         4.9450 
 159   0.0000       0.184652         5.0246 
 160   0.0000       0.190437         5.1821 
 161   0.0000       0.193190         5.2570 
 162   0.0000       0.195156         5.3105 
 163   0.0000       0.196701         5.3525 
 164   0.0000       0.199587         5.4310 
 165   0.0000       0.204117         5.5543 
 166   0.0000       0.204745         5.5714 
 167   0.0000       0.211573         5.7572 
 168   0.0000       0.214231         5.8295 
 169   0.0000       0.220226         5.9926 
 170   0.0000       0.227626         6.1940 
 171   0.0000       0.232226         6.3192 
 172   0.0000       0.235388         6.4052 
 173   0.0000       0.242500         6.5988 
 174   0.0000       0.243817         6.6346 
 175   0.0000       0.248733         6.7684 
 176   0.0000       0.254543         6.9265 
 177   0.0000       0.256575         6.9818 
 178   0.0000       0.259720         7.0673 
 179   0.0000       0.265345         7.2204 
 180   0.0000       0.274510         7.4698 
 181   0.0000       0.275618         7.4999 
 182   0.0000       0.279404         7.6030 
 183   0.0000       0.285742         7.7754 
 184   0.0000       0.293026         7.9736 
 185   0.0000       0.296641         8.0720 
 186   0.0000       0.299538         8.1508 
 187   0.0000       0.305424         8.3110 
 188   0.0000       0.307243         8.3605 
 189   0.0000       0.315321         8.5803 
 190   0.0000       0.320160         8.7120 
 191   0.0000       0.322440         8.7740 
 192   0.0000       0.328108         8.9283 
 193   0.0000       0.335283         9.1235 
 194   0.0000       0.337589         9.1863 
 195   0.0000       0.342757         9.3269 
 196   0.0000       0.346003         9.4152 
 197   0.0000       0.350080         9.5262 
 198   0.0000       0.353236         9.6121 
 199   0.0000       0.360288         9.8039 
 200   0.0000       0.364005         9.9051 
 201   0.0000       0.366860         9.9828 
 202   0.0000       0.370381        10.0786 
 203   0.0000       0.371431        10.1072 
 204   0.0000       0.375044        10.2055 
 205   0.0000       0.377888        10.2829 
 206   0.0000       0.381525        10.3818 
 207   0.0000       0.385429        10.4881 
 208   0.0000       0.387682        10.5494 
 209   0.0000       0.393684        10.7127 
 210   0.0000       0.396729        10.7955 
 211   0.0000       0.403706        10.9854 
 212   0.0000       0.406772        11.0688 
 213   0.0000       0.409021        11.1300 
 214   0.0000       0.415284        11.3005 
 215   0.0000       0.417652        11.3649 
 216   0.0000       0.422783        11.5045 
 217   0.0000       0.426047        11.5933 
 218   0.0000       0.430140        11.7047 
 219   0.0000       0.432105        11.7582 
 220   0.0000       0.436490        11.8775 
 221   0.0000       0.442344        12.0368 
 222   0.0000       0.447754        12.1840 
 223   0.0000       0.451255        12.2793 
 224   0.0000       0.453337        12.3359 
 225   0.0000       0.459459        12.5025 
 226   0.0000       0.466527        12.6948 
 227   0.0000       0.470439        12.8013 
 228   0.0000       0.472912        12.8686 
 229   0.0000       0.476341        12.9619 
 230   0.0000       0.478323        13.0158 
 231   0.0000       0.481588        13.1047 
 232   0.0000       0.492375        13.3982 
 233   0.0000       0.493969        13.4416 
 234   0.0000       0.499878        13.6024 
 235   0.0000       0.507926        13.8214 
 236   0.0000       0.511440        13.9170 
 237   0.0000       0.512636        13.9495 
 238   0.0000       0.523669        14.2498 
 239   0.0000       0.526871        14.3369 
 240   0.0000       0.532066        14.4783 
 241   0.0000       0.536231        14.5916 
 242   0.0000       0.540979        14.7208 
 243   0.0000       0.550670        14.9845 
 244   0.0000       0.558251        15.1908 
 245   0.0000       0.565320        15.3831 
 246   0.0000       0.568522        15.4703 
 247   0.0000       0.575463        15.6591 
 248   0.0000       0.577488        15.7143 
 249   0.0000       0.579930        15.7807 
 250   0.0000       0.587202        15.9786 
 251   0.0000       0.591297        16.0900 
 252   0.0000       0.597396        16.2560 
 253   0.0000       0.598693        16.2913 
 254   0.0000       0.606423        16.5016 
 255   0.0000       0.615811        16.7571 
 256   0.0000       0.618068        16.8185 
 257   0.0000       0.619928        16.8691 
 258   0.0000       0.628845        17.1117 
 259   0.0000       0.632675        17.2159 
 260   0.0000       0.642936        17.4952 
 261   0.0000       0.647447        17.6179 
 262   0.0000       0.655221        17.8295 
 263   0.0000       0.664895        18.0927 
 264   0.0000       0.669210        18.2101 
 265   0.0000       0.671892        18.2831 
 266   0.0000       0.674927        18.3657 
 267   0.0000       0.680695        18.5227 
 268   0.0000       0.687126        18.6977 
 269   0.0000       0.691744        18.8233 
 270   0.0000       0.695422        18.9234 
 271   0.0000       0.704553        19.1719 
 272   0.0000       0.706257        19.2182 
 273   0.0000       0.709004        19.2930 
 274   0.0000       0.713058        19.4033 
 275   0.0000       0.719660        19.5829 
 276   0.0000       0.720613        19.6089 
 277   0.0000       0.730723        19.8840 
 278   0.0000       0.734567        19.9886 
 279   0.0000       0.743196        20.2234 
 280   0.0000       0.745020        20.2730 
 281   0.0000       0.750696        20.4275 
 282   0.0000       0.756804        20.5937 
 283   0.0000       0.764042        20.7907 
 284   0.0000       0.766081        20.8461 
 285   0.0000       0.772272        21.0146 
 286   0.0000       0.775213        21.0946 
 287   0.0000       0.776392        21.1267 
 288   0.0000       0.780600        21.2412 
 289   0.0000       0.788594        21.4587 
 290   0.0000       0.791195        21.5295 
 291   0.0000       0.793615        21.5954 
 292   0.0000       0.802260        21.8306 
 293   0.0000       0.803961        21.8769 
 294   0.0000       0.813651        22.1406 
 295   0.0000       0.818916        22.2838 
 296   0.0000       0.825033        22.4503 
 297   0.0000       0.827847        22.5269 
 298   0.0000       0.835234        22.7279 
 299   0.0000       0.838686        22.8218 
 300   0.0000       0.841460        22.8973 
 301   0.0000       0.848501        23.0889 
 302   0.0000       0.850324        23.1385 
 303   0.0000       0.854338        23.2477 
 304   0.0000       0.857454        23.3325 
 305   0.0000       0.861244        23.4357 
 306   0.0000       0.867986        23.6191 
 307   0.0000       0.878415        23.9029 
 308   0.0000       0.879330        23.9278 
 309   0.0000       0.888788        24.1852 
 310   0.0000       0.890846        24.2412 
 311   0.0000       0.892137        24.2763 
 312   0.0000       0.895599        24.3705 
 313   0.0000       0.899294        24.4710 
 314   0.0000       0.902841        24.5676 
 315   0.0000       0.903142        24.5757 
 316   0.0000       0.913030        24.8448 
 317   0.0000       0.917340        24.9621 
 318   0.0000       0.929229        25.2856 
 319   0.0000       0.936316        25.4785 
 320   0.0000       0.938531        25.5387 
 321   0.0000       0.944337        25.6967 
 322   0.0000       0.948683        25.8150 
 323   0.0000       0.954491        25.9730 
 324   0.0000       0.962070        26.1793 
 325   0.0000       0.964902        26.2563 
 326   0.0000       0.971398        26.4331 
 327   0.0000       0.975857        26.5544 
 328   0.0000       0.983116        26.7520 
 329   0.0000       0.989179        26.9169 
 330   0.0000       0.996366        27.1125 
 331   0.0000       0.997986        27.1566 
 332   0.0000       1.004226        27.3264 
 333   0.0000       1.007760        27.4225 
 334   0.0000       1.014139        27.5961 
 335   0.0000       1.023192        27.8425 
 336   0.0000       1.027829        27.9687 
 337   0.0000       1.029691        28.0193 
 338   0.0000       1.035335        28.1729 
 339   0.0000       1.041706        28.3463 
 340   0.0000       1.048396        28.5283 
 341   0.0000       1.051471        28.6120 
 342   0.0000       1.056623        28.7522 
 343   0.0000       1.059278        28.8244 
 344   0.0000       1.064283        28.9606 
 345   0.0000       1.076433        29.2912 
 346   0.0000       1.077906        29.3313 
 347   0.0000       1.085940        29.5499 
 348   0.0000       1.090705        29.6796 
 349   0.0000       1.097601        29.8672 
 350   0.0000       1.103548        30.0291 
 351   0.0000       1.111524        30.2461 
 352   0.0000       1.116382        30.3783 
 353   0.0000       1.123557        30.5735 
 354   0.0000       1.125787        30.6342 
 355   0.0000       1.128555        30.7096 
 356   0.0000       1.139807        31.0157 
 357   0.0000       1.143125        31.1060 
 358   0.0000       1.155516        31.4432 
 359   0.0000       1.161177        31.5972 
 360   0.0000       1.167466        31.7684 
 361   0.0000       1.182199        32.1693 
 362   0.0000       1.192018        32.4365 
 363   0.0000       1.205852        32.8129 
 364   0.0000       1.232678        33.5429 
 365   0.0000       1.249210        33.9927 
 366   0.0000       1.264810        34.4172 
 367   0.0000       1.294323        35.2203 
 368   0.0000       1.306445        35.5502 
 369   0.0000       1.338598        36.4251 
 370   0.0000       1.364177        37.1212 
 371   0.0000       1.371977        37.3334 
 372   0.0000       1.538164        41.8556 
 373   0.0000       1.553641        42.2767 
 374   0.0000       1.570080        42.7241 
 375   0.0000       1.576710        42.9044 
 376   0.0000       1.581668        43.0394 
 377   0.0000       1.602009        43.5929 
 378   0.0000       1.615635        43.9637 
 379   0.0000       1.706464        46.4353 
 380   0.0000       1.752451        47.6866 
 381   0.0000       1.774143        48.2769 
 382   0.0000       1.781208        48.4691 
 383   0.0000       1.797051        48.9002 
 384   0.0000       1.804752        49.1098 
 385   0.0000       1.819901        49.5220 
 386   0.0000       1.829278        49.7772 
 387   0.0000       1.842583        50.1392 
 388   0.0000       1.845169        50.2096 
 389   0.0000       1.855449        50.4893 
 390   0.0000       1.858802        50.5806 
 391   0.0000       1.890499        51.4431 
 392   0.0000       1.898101        51.6500 
 393   0.0000       1.911244        52.0076 
 394   0.0000       1.920405        52.2569 
 395   0.0000       1.922127        52.3037 
 396   0.0000       1.946145        52.9573 
 397   0.0000       1.952567        53.1321 
 398   0.0000       1.954574        53.1867 
 399   0.0000       1.959174        53.3118 
 400   0.0000       1.960188        53.3394 
 401   0.0000       1.962017        53.3892 
 402   0.0000       1.964627        53.4602 
 403   0.0000       1.974856        53.7386 
 404   0.0000       1.978550        53.8391 
 405   0.0000       1.982860        53.9564 
 406   0.0000       1.992321        54.2138 
 407   0.0000       1.994889        54.2837 
 408   0.0000       2.000416        54.4341 
 409   0.0000       2.010956        54.7209 
 410   0.0000       2.014635        54.8210 
 411   0.0000       2.019375        54.9500 
 412   0.0000       2.023828        55.0711 
 413   0.0000       2.030971        55.2655 
 414   0.0000       2.032372        55.3037 
 415   0.0000       2.042008        55.5659 
 416   0.0000       2.043922        55.6179 
 417   0.0000       2.047159        55.7060 
 418   0.0000       2.052184        55.8428 
 419   0.0000       2.057554        55.9889 
 420   0.0000       2.059930        56.0535 
 421   0.0000       2.066451        56.2310 
 422   0.0000       2.074672        56.4547 
 423   0.0000       2.080541        56.6144 
 424   0.0000       2.086516        56.7770 
 425   0.0000       2.089924        56.8697 
 426   0.0000       2.100674        57.1622 
 427   0.0000       2.102597        57.2146 
 428   0.0000       2.105169        57.2846 
 429   0.0000       2.111261        57.4503 
 430   0.0000       2.121488        57.7286 
 431   0.0000       2.127610        57.8952 
 432   0.0000       2.130073        57.9622 
 433   0.0000       2.141184        58.2646 
 434   0.0000       2.143481        58.3271 
 435   0.0000       2.147789        58.4443 
 436   0.0000       2.149432        58.4890 
 437   0.0000       2.155307        58.6489 
 438   0.0000       2.159700        58.7684 
 439   0.0000       2.167598        58.9834 
 440   0.0000       2.182615        59.3920 
 441   0.0000       2.192983        59.6741 
 442   0.0000       2.194405        59.7128 
 443   0.0000       2.201311        59.9007 
 444   0.0000       2.204849        59.9970 
 445   0.0000       2.213054        60.2203 
 446   0.0000       2.219383        60.3925 
 447   0.0000       2.224876        60.5419 
 448   0.0000       2.227103        60.6025 
 449   0.0000       2.243026        61.0358 
 450   0.0000       2.250634        61.2429 
 451   0.0000       2.257461        61.4286 
 452   0.0000       2.270802        61.7917 
 453   0.0000       2.276030        61.9339 
 454   0.0000       2.278577        62.0032 
 455   0.0000       2.286603        62.2216 
 456   0.0000       2.297124        62.5079 
 457   0.0000       2.299013        62.5593 
 458   0.0000       2.305782        62.7435 
 459   0.0000       2.310617        62.8751 
 460   0.0000       2.323544        63.2268 
 461   0.0000       2.334561        63.5266 
 462   0.0000       2.343067        63.7581 
 463   0.0000       2.346435        63.8497 
 464   0.0000       2.352948        64.0270 
 465   0.0000       2.364771        64.3487 
 466   0.0000       2.373609        64.5892 
 467   0.0000       2.404926        65.4414 
 468   0.0000       2.417810        65.7919 
 469   0.0000       2.422705        65.9251 
 470   0.0000       2.435157        66.2640 
 471   0.0000       2.445336        66.5410 
 472   0.0000       2.452392        66.7330 
 473   0.0000       2.456668        66.8493 
 474   0.0000       2.470535        67.2267 
 475   0.0000       2.479221        67.4630 
 476   0.0000       2.485094        67.6228 
 477   0.0000       2.494756        67.8857 
 478   0.0000       2.503539        68.1248 
 479   0.0000       2.509569        68.2889 
 480   0.0000       2.510510        68.3144 
 481   0.0000       2.514803        68.4313 
 482   0.0000       2.521906        68.6245 
 483   0.0000       2.524677        68.6999 
 484   0.0000       2.533625        68.9435 
 485   0.0000       2.544673        69.2441 
 486   0.0000       2.551086        69.4186 
 487   0.0000       2.559024        69.6346 
 488   0.0000       2.567913        69.8765 
 489   0.0000       2.574983        70.0688 
 490   0.0000       2.582250        70.2666 
 491   0.0000       2.593131        70.5627 
 492   0.0000       2.596149        70.6448 
 493   0.0000       2.617158        71.2165 
 494   0.0000       2.624092        71.4052 
 495   0.0000       2.632773        71.6414 
 496   0.0000       2.637520        71.7706 
 497   0.0000       2.641853        71.8885 
 498   0.0000       2.668813        72.6221 
 499   0.0000       2.677479        72.8579 
 500   0.0000       2.692686        73.2717 
 501   0.0000       2.713227        73.8307 
 502   0.0000       2.724200        74.1292 
 503   0.0000       2.731926        74.3395 
 504   0.0000       2.757217        75.0277 
 505   0.0000       2.763243        75.1917 
 506   0.0000       2.783621        75.7462 
 507   0.0000       2.796318        76.0917 
 508   0.0000       2.811199        76.4966 
 509   0.0000       2.821181        76.7682 
 510   0.0000       2.835156        77.1485 
 511   0.0000       2.837783        77.2200 
 512   0.0000       2.847017        77.4713 
 513   0.0000       2.851806        77.6016 
 514   0.0000       2.869010        78.0697 
 515   0.0000       2.870854        78.1199 
 516   0.0000       2.880689        78.3875 
 517   0.0000       2.889344        78.6230 
 518   0.0000       2.894404        78.7607 
 519   0.0000       2.898144        78.8625 
 520   0.0000       2.901855        78.9635 
 521   0.0000       2.909156        79.1622 
 522   0.0000       2.916740        79.3685 
 523   0.0000       2.925219        79.5993 
 524   0.0000       2.931613        79.7732 
 525   0.0000       2.937379        79.9301 
 526   0.0000       2.949331        80.2554 
 527   0.0000       2.964091        80.6570 
 528   0.0000       2.968371        80.7735 
 529   0.0000       2.980582        81.1058 
 530   0.0000       2.982965        81.1706 
 531   0.0000       2.994489        81.4842 
 532   0.0000       3.000829        81.6567 
 533   0.0000       3.007370        81.8347 
 534   0.0000       3.011547        81.9484 
 535   0.0000       3.015041        82.0434 
 536   0.0000       3.027171        82.3735 
 537   0.0000       3.037771        82.6619 
 538   0.0000       3.042367        82.7870 
 539   0.0000       3.049430        82.9792 
 540   0.0000       3.052500        83.0628 
 541   0.0000       3.061083        83.2963 
 542   0.0000       3.069188        83.5169 
 543   0.0000       3.085922        83.9722 
 544   0.0000       3.096389        84.2570 
 545   0.0000       3.107264        84.5529 
 546   0.0000       3.108798        84.5947 
 547   0.0000       3.129948        85.1702 
 548   0.0000       3.139195        85.4218 
 549   0.0000       3.153136        85.8012 
 550   0.0000       3.173187        86.3468 
 551   0.0000       3.192095        86.8613 
 552   0.0000       3.202960        87.1570 
 553   0.0000       3.216823        87.5342 
 554   0.0000       3.230440        87.9047 
 555   0.0000       3.239973        88.1641 
 556   0.0000       3.254717        88.5654 
 557   0.0000       3.274939        89.1156 
 558   0.0000       3.293485        89.6203 
 559   0.0000       3.307346        89.9974 
 560   0.0000       3.330495        90.6274 
 561   0.0000       3.346325        91.0581 
 562   0.0000       3.370159        91.7067 
 563   0.0000       3.385256        92.1175 
 564   0.0000       3.399488        92.5048 
 565   0.0000       3.423989        93.1715 
 566   0.0000       3.441981        93.6611 
 567   0.0000       3.461578        94.1943 
 568   0.0000       3.475140        94.5634 
 569   0.0000       3.487973        94.9126 
 570   0.0000       3.497496        95.1717 
 571   0.0000       3.514101        95.6236 
 572   0.0000       3.520636        95.8014 
 573   0.0000       3.574348        97.2630 
 574   0.0000       3.582234        97.4776 
 575   0.0000       3.602690        98.0342 
 576   0.0000       3.614758        98.3626 
 577   0.0000       3.624400        98.6249 
 578   0.0000       3.635849        98.9365 
 579   0.0000       3.642726        99.1236 
 580   0.0000       3.660548        99.6086 
 581   0.0000       3.685833       100.2966 
 582   0.0000       3.710611       100.9709 
 583   0.0000       3.745214       101.9125 
 584   0.0000      19.859754       540.4114 
 585   0.0000      19.878349       540.9174 
 586   0.0000      19.936428       542.4978 
 587   0.0000      20.188314       549.3519 
 588   0.0000      31.608253       860.1043 
 589   0.0000      31.651357       861.2772 
 590   0.0000      31.675753       861.9411 
 591   0.0000      31.751243       863.9952 
 592   0.0000      43.268497      1177.3957 
 593   0.0000      43.275728      1177.5924 
 594   0.0000      43.365182      1180.0266 
 595   0.0000      43.374871      1180.2902 
 596   0.0000      43.391447      1180.7413 
 597   0.0000      43.410056      1181.2477 
 598   0.0000      43.417780      1181.4579 
 599   0.0000      43.434224      1181.9053 
 600   0.0000      43.462972      1182.6876 
 601   0.0000      43.505068      1183.8331 
 602   0.0000      43.536795      1184.6964 
 603   0.0000      43.541240      1184.8174 
 604   0.0000      43.575162      1185.7404 
 605   0.0000      43.632003      1187.2872 
 606   0.0000      43.659518      1188.0359 
 607   0.0000      43.871376      1193.8008 

                    ********************************
                    * MULLIKEN POPULATION ANALYSIS *
                    ********************************

-----------------------
MULLIKEN ATOMIC CHARGES
-----------------------
   0 S :    0.929796
   1 O :   -0.544943
   2 O :   -0.581204
   3 O :   -0.562651
   4 O :   -0.587553
   5 H :    0.429197
   6 S :    1.225659
   7 O :   -0.725625
   8 O :   -0.661003
   9 O :   -0.433689
  10 O :   -0.701430
  11 H :    0.447753
  12 S :    1.260755
  13 O :   -0.588329
  14 O :   -0.691155
  15 O :   -0.627551
  16 O :   -0.609825
  17 H :    0.457853
  18 S :    1.204399
  19 O :   -0.596271
  20 O :   -0.630390
  21 O :   -0.631804
  22 O :   -0.621013
  23 H :    0.457562
  24 N :   -0.784043
  25 H :    0.398192
  26 H :    0.397664
  27 H :    0.407462
  28 H :    0.380855
  29 N :   -0.786987
  30 H :    0.403700
  31 H :    0.489128
  32 H :    0.399738
  33 H :    0.406581
  34 N :   -0.855767
  35 H :    0.389754
  36 H :    0.496822
  37 H :    0.404391
  38 H :    0.414874
  39 N :   -0.786879
  40 H :    0.434077
  41 H :    0.396014
  42 H :    0.400314
  43 H :    0.375570
Sum of atomic charges:   -0.0000000

--------------------------------
MULLIKEN REDUCED ORBITAL CHARGES
--------------------------------
  0 S s       :     5.138108  s :     5.138108
      pz      :     2.948777  p :     9.041545
      px      :     3.053350
      py      :     3.039418
      dz2     :     0.209977  d :     0.890551
      dxz     :     0.179408
      dyz     :     0.166239
      dx2y2   :     0.153730
      dxy     :     0.181196
  1 O s       :     3.869952  s :     3.869952
      pz      :     1.511934  p :     4.641882
      px      :     1.643457
      py      :     1.486492
      dz2     :     0.004329  d :     0.033109
      dxz     :     0.005095
      dyz     :     0.010767
      dx2y2   :     0.004081
      dxy     :     0.008837
  2 O s       :     3.809298  s :     3.809298
      pz      :     1.704643  p :     4.731241
      px      :     1.297255
      py      :     1.729343
      dz2     :     0.005379  d :     0.040665
      dxz     :     0.005974
      dyz     :     0.012232
      dx2y2   :     0.009459
      dxy     :     0.007621
  3 O s       :     3.872416  s :     3.872416
      pz      :     1.240573  p :     4.646923
      px      :     1.725935
      py      :     1.680415
      dz2     :     0.015687  d :     0.043311
      dxz     :     0.003146
      dyz     :     0.005994
      dx2y2   :     0.008615
      dxy     :     0.009869
  4 O s       :     3.801617  s :     3.801617
      pz      :     1.591525  p :     4.750522
      px      :     1.720220
      py      :     1.438777
      dz2     :     0.011662  d :     0.035414
      dxz     :     0.007293
      dyz     :     0.005023
      dx2y2   :     0.006258
      dxy     :     0.005178
  5 H s       :     0.570803  s :     0.570803
  6 S s       :     5.012251  s :     5.012251
      pz      :     2.965672  p :     8.883345
      px      :     2.945573
      py      :     2.972100
      dz2     :     0.179752  d :     0.878745
      dxz     :     0.176367
      dyz     :     0.147451
      dx2y2   :     0.188729
      dxy     :     0.186446
  7 O s       :     3.894387  s :     3.894387
      pz      :     1.751117  p :     4.767714
      px      :     1.719098
      py      :     1.297499
      dz2     :     0.012913  d :     0.063524
      dxz     :     0.008838
      dyz     :     0.010371
      dx2y2   :     0.018925
      dxy     :     0.012476
  8 O s       :     3.857168  s :     3.857168
      pz      :     1.757179  p :     4.756159
      px      :     1.386941
      py      :     1.612039
      dz2     :     0.010791  d :     0.047676
      dxz     :     0.008739
      dyz     :     0.005877
      dx2y2   :     0.011095
      dxy     :     0.011174
  9 O s       :     3.831902  s :     3.831902
      pz      :     1.420986  p :     4.564681
      px      :     1.477222
      py      :     1.666473
      dz2     :     0.005533  d :     0.037106
      dxz     :     0.014973
      dyz     :     0.004849
      dx2y2   :     0.006289
      dxy     :     0.005462
 10 O s       :     3.819888  s :     3.819888
      pz      :     1.497362  p :     4.830411
      px      :     1.814001
      py      :     1.519048
      dz2     :     0.014357  d :     0.051131
      dxz     :     0.014696
      dyz     :     0.007012
      dx2y2   :     0.010290
      dxy     :     0.004776
 11 H s       :     0.552247  s :     0.552247
 12 S s       :     5.065334  s :     5.065334
      pz      :     2.948868  p :     8.791766
      px      :     2.929917
      py      :     2.912981
      dz2     :     0.194463  d :     0.882144
      dxz     :     0.192574
      dyz     :     0.161180
      dx2y2   :     0.175727
      dxy     :     0.158201
 13 O s       :     3.839385  s :     3.839385
      pz      :     1.283317  p :     4.714169
      px      :     1.709908
      py      :     1.720944
      dz2     :     0.014845  d :     0.034776
      dxz     :     0.006884
      dyz     :     0.008141
      dx2y2   :     0.004689
      dxy     :     0.000217
 14 O s       :     3.887474  s :     3.887474
      pz      :     1.759124  p :     4.751777
      px      :     1.387077
      py      :     1.605576
      dz2     :     0.010589  d :     0.051904
      dxz     :     0.011581
      dyz     :     0.007574
      dx2y2   :     0.008500
      dxy     :     0.013659
 15 O s       :     3.881524  s :     3.881524
      pz      :     1.586640  p :     4.698251
      px      :     1.473184
      py      :     1.638427
      dz2     :     0.009002  d :     0.047776
      dxz     :     0.011861
      dyz     :     0.009816
      dx2y2   :     0.007669
      dxy     :     0.009428
 16 O s       :     3.818831  s :     3.818831
      pz      :     1.728242  p :     4.732360
      px      :     1.618874
      py      :     1.385245
      dz2     :     0.007718  d :     0.058633
      dxz     :     0.015364
      dyz     :     0.014091
      dx2y2   :     0.011158
      dxy     :     0.010303
 17 H s       :     0.542147  s :     0.542147
 18 S s       :     5.105260  s :     5.105260
      pz      :     2.924896  p :     8.807627
      px      :     2.924394
      py      :     2.958337
      dz2     :     0.162304  d :     0.882713
      dxz     :     0.181568
      dyz     :     0.178628
      dx2y2   :     0.183725
      dxy     :     0.176489
 19 O s       :     3.867410  s :     3.867410
      pz      :     1.740123  p :     4.694413
      px      :     1.269463
      py      :     1.684828
      dz2     :     0.010353  d :     0.034447
      dxz     :     0.002689
      dyz     :     0.005493
      dx2y2   :     0.009443
      dxy     :     0.006469
 20 O s       :     3.858982  s :     3.858982
      pz      :     1.344042  p :     4.726468
      px      :     1.651620
      py      :     1.730805
      dz2     :     0.012950  d :     0.044940
      dxz     :     0.010117
      dyz     :     0.007657
      dx2y2   :     0.007986
      dxy     :     0.006231
 21 O s       :     3.849840  s :     3.849840
      pz      :     1.691255  p :     4.727229
      px      :     1.755358
      py      :     1.280616
      dz2     :     0.009044  d :     0.054735
      dxz     :     0.008042
      dyz     :     0.013387
      dx2y2   :     0.014322
      dxy     :     0.009941
 22 O s       :     3.821854  s :     3.821854
      pz      :     1.623852  p :     4.740817
      px      :     1.730582
      py      :     1.386382
      dz2     :     0.013085  d :     0.058342
      dxz     :     0.011877
      dyz     :     0.015082
      dx2y2   :     0.012879
      dxy     :     0.005420
 23 H s       :     0.542438  s :     0.542438
 24 N s       :     3.510235  s :     3.510235
      pz      :     1.381551  p :     4.243020
      px      :     1.444531
      py      :     1.416938
      dz2     :     0.007918  d :     0.030787
      dxz     :     0.003066
      dyz     :     0.007117
      dx2y2   :     0.007183
      dxy     :     0.005504
 25 H s       :     0.601808  s :     0.601808
 26 H s       :     0.602336  s :     0.602336
 27 H s       :     0.592538  s :     0.592538
 28 H s       :     0.619145  s :     0.619145
 29 N s       :     3.510825  s :     3.510825
      pz      :     1.410077  p :     4.244297
      px      :     1.415347
      py      :     1.418872
      dz2     :     0.005037  d :     0.031865
      dxz     :     0.005134
      dyz     :     0.009686
      dx2y2   :     0.002524
      dxy     :     0.009484
 30 H s       :     0.596300  s :     0.596300
 31 H s       :     0.510872  s :     0.510872
 32 H s       :     0.600262  s :     0.600262
 33 H s       :     0.593419  s :     0.593419
 34 N s       :     3.545224  s :     3.545224
      pz      :     1.429040  p :     4.279315
      px      :     1.398186
      py      :     1.452088
      dz2     :     0.008532  d :     0.031228
      dxz     :     0.007013
      dyz     :     0.001981
      dx2y2   :     0.004529
      dxy     :     0.009173
 35 H s       :     0.610246  s :     0.610246
 36 H s       :     0.503178  s :     0.503178
 37 H s       :     0.595609  s :     0.595609
 38 H s       :     0.585126  s :     0.585126
 39 N s       :     3.529775  s :     3.529775
      pz      :     1.382895  p :     4.227378
      px      :     1.449045
      py      :     1.395438
      dz2     :     0.007062  d :     0.029727
      dxz     :     0.003785
      dyz     :     0.006944
      dx2y2   :     0.008104
      dxy     :     0.003831
 40 H s       :     0.565923  s :     0.565923
 41 H s       :     0.603986  s :     0.603986
 42 H s       :     0.599686  s :     0.599686
 43 H s       :     0.624430  s :     0.624430


                     *******************************
                     * LOEWDIN POPULATION ANALYSIS *
                     *******************************

----------------------
LOEWDIN ATOMIC CHARGES
----------------------
   0 S :    1.866507
   1 O :   -0.782986
   2 O :   -0.920539
   3 O :   -0.804548
   4 O :   -0.748883
   5 H :    0.376510
   6 S :    1.873168
   7 O :   -0.879461
   8 O :   -0.862249
   9 O :   -0.671778
  10 O :   -0.789255
  11 H :    0.373909
  12 S :    1.875483
  13 O :   -0.818204
  14 O :   -0.821242
  15 O :   -0.799570
  16 O :   -0.673490
  17 H :    0.368847
  18 S :    1.877898
  19 O :   -0.828936
  20 O :   -0.808490
  21 O :   -0.828271
  22 O :   -0.677533
  23 H :    0.368730
  24 N :   -0.380350
  25 H :    0.338144
  26 H :    0.325799
  27 H :    0.340064
  28 H :    0.300727
  29 N :   -0.355653
  30 H :    0.331064
  31 H :    0.338170
  32 H :    0.329712
  33 H :    0.322576
  34 N :   -0.382633
  35 H :    0.308621
  36 H :    0.352454
  37 H :    0.317758
  38 H :    0.334696
  39 N :   -0.395922
  40 H :    0.335328
  41 H :    0.342420
  42 H :    0.333618
  43 H :    0.297789

-------------------------------
LOEWDIN REDUCED ORBITAL CHARGES
-------------------------------
  0 S s       :     4.609591  s :     4.609591
      pz      :     2.840601  p :     8.483305
      px      :     2.828798
      py      :     2.813906
      dz2     :     0.250740  d :     1.040597
      dxz     :     0.199979
      dyz     :     0.194879
      dx2y2   :     0.177856
      dxy     :     0.217143
  1 O s       :     3.662496  s :     3.662496
      pz      :     1.581043  p :     4.801683
      px      :     1.653356
      py      :     1.567284
      dz2     :     0.077247  d :     0.318807
      dxz     :     0.059876
      dyz     :     0.062670
      dx2y2   :     0.054574
      dxy     :     0.064440
  2 O s       :     3.647875  s :     3.647875
      pz      :     1.676447  p :     4.812554
      px      :     1.461086
      py      :     1.675021
      dz2     :     0.086732  d :     0.460110
      dxz     :     0.100075
      dyz     :     0.065031
      dx2y2   :     0.100943
      dxy     :     0.107329
  3 O s       :     3.656829  s :     3.656829
      pz      :     1.442544  p :     4.798513
      px      :     1.691910
      py      :     1.664060
      dz2     :     0.097984  d :     0.349206
      dxz     :     0.071158
      dyz     :     0.078814
      dx2y2   :     0.041903
      dxy     :     0.059346
  4 O s       :     3.604196  s :     3.604196
      pz      :     1.585666  p :     4.795731
      px      :     1.718732
      py      :     1.491332
      dz2     :     0.070935  d :     0.348956
      dxz     :     0.043654
      dyz     :     0.088710
      dx2y2   :     0.071806
      dxy     :     0.073852
  5 H s       :     0.623490  s :     0.623490
  6 S s       :     4.621504  s :     4.621504
      pz      :     2.813848  p :     8.480254
      px      :     2.837022
      py      :     2.829384
      dz2     :     0.212208  d :     1.025074
      dxz     :     0.214061
[...]
      dyz     :     0.038665
      dx2y2   :     0.042427
      dxy     :     0.042033
 10 O s       :     3.604529  s :     3.604529
      pz      :     1.535241  p :     4.822823
      px      :     1.777322
      py      :     1.510260
      dz2     :     0.089392  d :     0.361903
      dxz     :     0.077152
      dyz     :     0.082462
      dx2y2   :     0.063057
      dxy     :     0.049840
 11 H s       :     0.626091  s :     0.626091
 12 S s       :     4.617109  s :     4.617109
      pz      :     2.840615  p :     8.478127
      px      :     2.838151
      py      :     2.799361
      dz2     :     0.230289  d :     1.029282
      dxz     :     0.220492
      dyz     :     0.184122
      dx2y2   :     0.204875
      dxy     :     0.189503
 13 O s       :     3.659420  s :     3.659420
      pz      :     1.442396  p :     4.805816
      px      :     1.682618
      py      :     1.680802
      dz2     :     0.107876  d :     0.352969
      dxz     :     0.076648
      dyz     :     0.087321
      dx2y2   :     0.040905
      dxy     :     0.040219
 14 O s       :     3.648798  s :     3.648798
      pz      :     1.698465  p :     4.813120
      px      :     1.499943
      py      :     1.614712
      dz2     :     0.060408  d :     0.359324
      dxz     :     0.071839
      dyz     :     0.059756
      dx2y2   :     0.087111
      dxy     :     0.080210
 15 O s       :     3.659656  s :     3.659656
      pz      :     1.615652  p :     4.793420
      px      :     1.553658
      py      :     1.624110
      dz2     :     0.070970  d :     0.346494
      dxz     :     0.082241
      dyz     :     0.048185
      dx2y2   :     0.075896
      dxy     :     0.069202
 16 O s       :     3.613672  s :     3.613672
      pz      :     1.720813  p :     4.784201
      px      :     1.612630
      py      :     1.450758
      dz2     :     0.049116  d :     0.275616
      dxz     :     0.036468
      dyz     :     0.062350
      dx2y2   :     0.051477
      dxy     :     0.076205
 17 H s       :     0.631153  s :     0.631153
 18 S s       :     4.617370  s :     4.617370
      pz      :     2.819899  p :     8.475208
      px      :     2.830313
      py      :     2.824997
      dz2     :     0.192446  d :     1.029524
      dxz     :     0.211918
      dyz     :     0.205260
      dx2y2   :     0.220289
      dxy     :     0.199611
 19 O s       :     3.665096  s :     3.665096
      pz      :     1.694459  p :     4.808770
      px      :     1.443680
      py      :     1.670632
      dz2     :     0.067131  d :     0.355069
      dxz     :     0.086556
      dyz     :     0.035782
      dx2y2   :     0.082198
      dxy     :     0.083403
 20 O s       :     3.651226  s :     3.651226
      pz      :     1.471127  p :     4.804674
      px      :     1.652456
      py      :     1.681092
      dz2     :     0.082060  d :     0.352590
      dxz     :     0.094067
      dyz     :     0.080565
      dx2y2   :     0.055918
      dxy     :     0.039979
 21 O s       :     3.651668  s :     3.651668
      pz      :     1.668899  p :     4.803005
      px      :     1.698373
      py      :     1.435733
      dz2     :     0.051002  d :     0.373598
      dxz     :     0.040501
      dyz     :     0.094557
      dx2y2   :     0.097975
      dxy     :     0.089563
 22 O s       :     3.613811  s :     3.613811
      pz      :     1.639536  p :     4.788010
      px      :     1.732799
      py      :     1.415676
      dz2     :     0.071767  d :     0.275711
      dxz     :     0.048421
      dyz     :     0.050413
      dx2y2   :     0.069959
      dxy     :     0.035152
 23 H s       :     0.631270  s :     0.631270
 24 N s       :     3.235535  s :     3.235535
      pz      :     1.338634  p :     4.104780
      px      :     1.395245
      py      :     1.370901
      dz2     :     0.010623  d :     0.040035
      dxz     :     0.003879
      dyz     :     0.009229
      dx2y2   :     0.008980
      dxy     :     0.007323
 25 H s       :     0.661856  s :     0.661856
 26 H s       :     0.674201  s :     0.674201
 27 H s       :     0.659936  s :     0.659936
 28 H s       :     0.699273  s :     0.699273
 29 N s       :     3.228188  s :     3.228188
      pz      :     1.357056  p :     4.086019
      px      :     1.367877
      py      :     1.361086
      dz2     :     0.006466  d :     0.041446
      dxz     :     0.006778
      dyz     :     0.012836
      dx2y2   :     0.003363
      dxy     :     0.012004
 30 H s       :     0.668936  s :     0.668936
 31 H s       :     0.661830  s :     0.661830
 32 H s       :     0.670288  s :     0.670288
 33 H s       :     0.677424  s :     0.677424
 34 N s       :     3.238052  s :     3.238052
      pz      :     1.377644  p :     4.103426
      px      :     1.346236
      py      :     1.379545
      dz2     :     0.010876  d :     0.041156
      dxz     :     0.009439
      dyz     :     0.002497
      dx2y2   :     0.005999
      dxy     :     0.012346
 35 H s       :     0.691379  s :     0.691379
 36 H s       :     0.647546  s :     0.647546
 37 H s       :     0.682242  s :     0.682242
 38 H s       :     0.665304  s :     0.665304
 39 N s       :     3.238682  s :     3.238682
      pz      :     1.348080  p :     4.118551
      px      :     1.409114
      py      :     1.361357
      dz2     :     0.008972  d :     0.038689
      dxz     :     0.004815
      dyz     :     0.009380
      dx2y2   :     0.010606
      dxy     :     0.004915
 40 H s       :     0.664672  s :     0.664672
 41 H s       :     0.657580  s :     0.657580
 42 H s       :     0.666382  s :     0.666382
 43 H s       :     0.702211  s :     0.702211


                      *****************************
                      * MAYER POPULATION ANALYSIS *
                      *****************************

  NA   - Mulliken gross atomic population
  ZA   - Total nuclear charge
  QA   - Mulliken gross atomic charge
  VA   - Mayer's total valence
  BVA  - Mayer's bonded valence
  FA   - Mayer's free valence

  ATOM       NA         ZA         QA         VA         BVA        FA
  0 S     15.0702    16.0000     0.9298     5.7111     5.7111     0.0000
  1 O      8.5449     8.0000    -0.5449     1.8855     1.8855     0.0000
  2 O      8.5812     8.0000    -0.5812     1.6682     1.6682     0.0000
  3 O      8.5627     8.0000    -0.5627     1.8498     1.8498    -0.0000
  4 O      8.5876     8.0000    -0.5876     1.7649     1.7649     0.0000
  5 H      0.5708     1.0000     0.4292     0.8434     0.8434    -0.0000
  6 S     14.7743    16.0000     1.2257     5.7073     5.7073    -0.0000
  7 O      8.7256     8.0000    -0.7256     1.8507     1.8507     0.0000
  8 O      8.6610     8.0000    -0.6610     1.8078     1.8078    -0.0000
  9 O      8.4337     8.0000    -0.4337     2.0583     2.0583     0.0000
 10 O      8.7014     8.0000    -0.7014     1.7436     1.7436     0.0000
 11 H      0.5522     1.0000     0.4478     0.8182     0.8182    -0.0000
 12 S     14.7392    16.0000     1.2608     5.6046     5.6046    -0.0000
 13 O      8.5883     8.0000    -0.5883     1.7843     1.7843     0.0000
 14 O      8.6912     8.0000    -0.6912     1.7700     1.7700    -0.0000
 15 O      8.6276     8.0000    -0.6276     1.8760     1.8760     0.0000
 16 O      8.6098     8.0000    -0.6098     1.9439     1.9439    -0.0000
 17 H      0.5421     1.0000     0.4579     0.7776     0.7776     0.0000
 18 S     14.7956    16.0000     1.2044     5.6610     5.6610     0.0000
 19 O      8.5963     8.0000    -0.5963     1.7819     1.7819    -0.0000
 20 O      8.6304     8.0000    -0.6304     1.7798     1.7798    -0.0000
 21 O      8.6318     8.0000    -0.6318     1.8278     1.8278    -0.0000
 22 O      8.6210     8.0000    -0.6210     1.9439     1.9439     0.0000
 23 H      0.5424     1.0000     0.4576     0.7779     0.7779    -0.0000
 24 N      7.7840     7.0000    -0.7840     3.0328     3.0328    -0.0000
 25 H      0.6018     1.0000     0.3982     0.8622     0.8622    -0.0000
 26 H      0.6023     1.0000     0.3977     0.8671     0.8671    -0.0000
 27 H      0.5925     1.0000     0.4075     0.8627     0.8627    -0.0000
 28 H      0.6191     1.0000     0.3809     0.8404     0.8404     0.0000
 29 N      7.7870     7.0000    -0.7870     3.1754     3.1754    -0.0000
 30 H      0.5963     1.0000     0.4037     0.8523     0.8523     0.0000
 31 H      0.5109     1.0000     0.4891     0.7169     0.7169    -0.0000
 32 H      0.6003     1.0000     0.3997     0.8539     0.8539    -0.0000
 33 H      0.5934     1.0000     0.4066     0.8360     0.8360     0.0000
 34 N      7.8558     7.0000    -0.8558     3.1127     3.1127     0.0000
 35 H      0.6102     1.0000     0.3898     0.8443     0.8443     0.0000
 36 H      0.5032     1.0000     0.4968     0.7402     0.7402     0.0000
 37 H      0.5956     1.0000     0.4044     0.8358     0.8358     0.0000
 38 H      0.5851     1.0000     0.4149     0.8543     0.8543    -0.0000
 39 N      7.7869     7.0000    -0.7869     3.0117     3.0117    -0.0000
 40 H      0.5659     1.0000     0.4341     0.8119     0.8119    -0.0000
 41 H      0.6040     1.0000     0.3960     0.8755     0.8755     0.0000
 42 H      0.5997     1.0000     0.4003     0.8658     0.8658     0.0000
 43 H      0.6244     1.0000     0.3756     0.8407     0.8407    -0.0000

  Mayer bond orders larger than 0.100000
B(  0-S ,  1-O ) :   1.6299 B(  0-S ,  2-O ) :   1.4237 B(  0-S ,  3-O ) :   1.5807 
B(  0-S ,  4-O ) :   1.0493 B(  1-O , 27-H ) :   0.1226 B(  3-O , 42-H ) :   0.1056 
B(  4-O ,  5-H ) :   0.6323 B(  5-H , 14-O ) :   0.1642 B(  6-S ,  7-O ) :   1.3784 
B(  6-S ,  8-O ) :   1.4856 B(  6-S ,  9-O ) :   1.9286 B(  6-S , 10-O ) :   0.9006 
B(  7-O , 30-H ) :   0.1042 B(  7-O , 41-H ) :   0.1982 B( 10-O , 11-H ) :   0.6603 
B( 11-H , 20-O ) :   0.1194 B( 12-S , 13-O ) :   1.5466 B( 12-S , 14-O ) :   1.3514 
B( 12-S , 15-O ) :   1.5941 B( 12-S , 16-O ) :   1.0946 B( 14-O , 26-H ) :   0.1212 
B( 16-O , 17-H ) :   0.7274 B( 18-S , 19-O ) :   1.5356 B( 18-S , 20-O ) :   1.4941 
B( 18-S , 21-O ) :   1.5155 B( 18-S , 22-O ) :   1.0858 B( 19-O , 38-H ) :   0.1086 
B( 22-O , 23-H ) :   0.7281 B( 24-N , 25-H ) :   0.7524 B( 24-N , 26-H ) :   0.7337 
B( 24-N , 27-H ) :   0.7159 B( 24-N , 28-H ) :   0.8343 B( 29-N , 30-H ) :   0.7304 
B( 29-N , 31-H ) :   0.8204 B( 29-N , 32-H ) :   0.7838 B( 29-N , 33-H ) :   0.7645 
B( 34-N , 35-H ) :   0.8171 B( 34-N , 36-H ) :   0.6837 B( 34-N , 37-H ) :   0.7963 
B( 34-N , 38-H ) :   0.7188 B( 39-N , 40-H ) :   0.7491 B( 39-N , 41-H ) :   0.6599 
B( 39-N , 42-H ) :   0.7311 B( 39-N , 43-H ) :   0.8365 

-------
TIMINGS
-------

Total SCF time: 0 days 0 hours 2 min 56 sec 

Total time                  ....     176.951 sec
Sum of individual times     ....     175.455 sec  ( 99.2%)

Fock matrix formation       ....     165.194 sec  ( 93.4%)
  Split-RI-J                ....      48.184 sec  ( 29.2% of F)
  XC integration            ....     116.960 sec  ( 70.8% of F)
    Basis function eval.    ....      24.055 sec  ( 20.6% of XC)
    Density eval.           ....      55.326 sec  ( 47.3% of XC)
    XC-Functional eval.     ....       3.608 sec  (  3.1% of XC)
    XC-Potential eval.      ....      30.789 sec  ( 26.3% of XC)
Diagonalization             ....       2.612 sec  (  1.5%)
Density matrix formation    ....       0.142 sec  (  0.1%)
Population analysis         ....       0.201 sec  (  0.1%)
Initial guess               ....       0.324 sec  (  0.2%)
Orbital Transformation      ....       0.000 sec  (  0.0%)
Orbital Orthonormalization  ....       0.000 sec  (  0.0%)
DIIS solution               ....       1.067 sec  (  0.6%)
SOSCF solution              ....       1.048 sec  (  0.6%)
Grid generation             ....       4.866 sec  (  2.7%)

Maximum memory used throughout the entire SCF-calculation: 308.9 MB


-------------------------------------------------------------------------------
                          DFT DISPERSION CORRECTION                            
                                                                               
                              DFTD3 V3.1  Rev 1                                
                          USING Becke-Johnson damping                          
-------------------------------------------------------------------------------
The B97-3c composite method is recognized
Using three-body term ABC
Active option DFTDOPT                   ...         4   

molecular C6(AA) [au] = 22564.878847 


            DFT-D V3
 parameters
 s6 scaling factor         :     1.0000 
 a1 scaling factor         :     0.3700 
 s8 scaling factor         :     1.5000 
 a2 scaling factor         :     4.1000 
 Damping factor alpha9(ATM):    16.0000 
 ad hoc parameters k1-k3   :    16.0000     1.3333    -4.0000 

 Edisp/kcal,au: -87.772479858281  -0.139874335167 
 E6   /kcal   : -46.441946902 
 E8   /kcal   : -42.276818962 
 E6(ABC)      :   0.946286005 
 % E8         :  48.166371771 
 % E6(ABC)    :  -1.078112418 

-------------------------   ----------------
Dispersion correction           -0.139874335
-------------------------   ----------------

------------------   -----------------
SRB correction            -0.142572001
------------------   -----------------

-------------------------   --------------------
FINAL SINGLE POINT ENERGY     -3026.636162965394
-------------------------   --------------------

------------------------------------------------------------------------------
                         ORCA SCF GRADIENT CALCULATION
------------------------------------------------------------------------------

Gradient of the Kohn-Sham DFT energy:
Kohn-Sham wavefunction type      ... RKS
Hartree-Fock exchange scaling    ...    0.000
Number of operators              ...    1
Number of atoms                  ...   44
Basis set dimensions             ...  608
Integral neglect threshold       ... 2.5e-11
Integral primitive cutoff        ... 2.5e-12
SHARK Integral package           ... ON

Nuc. rep. gradient       (SHARK) ... done (  0.0 sec)
HCore & Overlap gradient (SHARK) ... done (  4.7 sec)
RI-J gradient            (SHARK) ... done ( 12.1 sec)
Exchange-correlation gradient    ... done
Dispersion correction            ... done
SRB correction                   ... done

------------------
CARTESIAN GRADIENT
------------------

   1   S   :   -0.007896617   -0.018975209    0.012017108
   2   O   :   -0.020536734    0.031577253    0.027555801
   3   O   :    0.030714983   -0.008846260    0.012482265
   4   O   :   -0.004770417    0.007872140   -0.044991051
   5   O   :   -0.014885328   -0.011742043   -0.007424736
   6   H   :    0.000968214   -0.000530067    0.003129078
   7   S   :    0.006670981    0.021156720    0.009188122
   8   O   :   -0.004481574   -0.042901947    0.008820916
   9   O   :   -0.032367284    0.021075397   -0.004488384
  10   O   :    0.034059616    0.006591267   -0.035641068
  11   O   :    0.012632374   -0.001233258    0.012310713
  12   H   :   -0.003442437    0.002404501    0.000740878
  13   S   :    0.003116901   -0.016900729   -0.009017992
  14   O   :    0.008574387   -0.012228027   -0.035922239
  15   O   :   -0.043610241    0.022401437    0.006262050
  16   O   :    0.030366461    0.009809952    0.030823742
  17   O   :    0.001678200   -0.016637207    0.014183751
  18   H   :   -0.003429670   -0.001102349   -0.002891577
  19   S   :    0.004872634    0.009896840    0.003970061
  20   O   :   -0.037305320    0.018421736    0.001986918
  21   O   :    0.024951313    0.010794824   -0.037037456
  22   O   :    0.007289659   -0.037498735    0.020643839
  23   O   :    0.011390768    0.003241618    0.019169798
  24   H   :   -0.000098543    0.003472083   -0.002808449
  25   N   :   -0.001219635    0.000261630    0.003628618
  26   H   :    0.001637279    0.000864522    0.002169336
  27   H   :   -0.002808681   -0.000094395    0.002350722
  28   H   :   -0.002838881    0.001528544   -0.000266752
  29   H   :   -0.000388455    0.000313598    0.002316880
  30   N   :    0.006937003   -0.004933744    0.002954658
  31   H   :   -0.000603891   -0.000471200   -0.002525929
  32   H   :   -0.000327458   -0.000352015    0.000008301
  33   H   :   -0.002057490    0.000191981   -0.000988410
  34   H   :   -0.001827009    0.001440543    0.001694925
  35   N   :   -0.001100584    0.003534344   -0.005538181
  36   H   :    0.000160290    0.001694903    0.001129559
  37   H   :    0.002403190   -0.000563617   -0.004408949
  38   H   :   -0.000678271    0.000343150   -0.001686446
  39   H   :    0.000251552    0.006062568    0.003867860
  40   N   :   -0.000899366   -0.003891569   -0.002109476
  41   H   :   -0.000771270   -0.003130379    0.000838561
  42   H   :    0.002416731   -0.002722389   -0.000629628
  43   H   :   -0.001190507    0.001353552   -0.004306971
  44   H   :   -0.001556870   -0.001549962   -0.001560763

Difference to translation invariance:
           :   -0.0000000000   -0.0000000000   -0.0000000000

Difference to rotation invariance:
           :   -0.0013498700   -0.0000209772   -0.0001205897

Norm of the cartesian gradient     ...    0.1638488529
RMS gradient                       ...    0.0142612121
MAX gradient                       ...    0.0449910510

-------
TIMINGS
-------

Total SCF gradient time            ...       93.241 sec

One electron gradient       ....       4.687 sec  (  5.0%)
RI-J Coulomb gradient       ....      12.127 sec  ( 13.0%)
XC gradient                 ....      75.928 sec  ( 81.4%)

Maximum memory used throughout the entire SCFGRAD-calculation: 281.8 MB

                            ***************************************
                            *     ORCA property calculations      *
                            ***************************************

                                    ---------------------
                                    Active property flags
                                    ---------------------
   (+) Dipole Moment


------------------------------------------------------------------------------
                       ORCA ELECTRIC PROPERTIES CALCULATION
------------------------------------------------------------------------------

Dipole Moment Calculation                       ... on
Quadrupole Moment Calculation                   ... off
Polarizability Calculation                      ... off
GBWName                                         ... 4sa4am-44_10_152.gbw
Electron density                                ... 4sa4am-44_10_152.scfp
The origin for moment calculation is the CENTER OF MASS  = (-0.141441,  0.021468  0.023558)

-------------
DIPOLE MOMENT
-------------
                                X             Y             Z
Electronic contribution:     -1.90018       0.22295      -0.37200
Nuclear contribution   :      3.06054      -0.50495      -0.57225
                        -----------------------------------------
Total Dipole Moment    :      1.16036      -0.28199      -0.94425
                        -----------------------------------------
Magnitude (a.u.)       :      1.52235
Magnitude (Debye)      :      3.86951



--------------------
Rotational spectrum 
--------------------
 
Rotational constants in cm-1:     0.006717     0.005180     0.004461 
Rotational constants in MHz :   201.364230   155.293926   133.735834 

 Dipole components along the rotational axes: 
x,y,z [a.u.] :    -0.952669    -1.048610     0.557130 
x,y,z [Debye]:    -2.421492    -2.665356     1.416113 

 

Timings for individual modules:

Sum of individual times         ...      271.703 sec (=   4.528 min)
GTO integral calculation        ...        1.371 sec (=   0.023 min)   0.5 %
SCF iterations                  ...      177.014 sec (=   2.950 min)  65.1 %
SCF Gradient evaluation         ...       93.318 sec (=   1.555 min)  34.3 %
                             ****ORCA TERMINATED NORMALLY****
TOTAL RUN TIME: 0 days 0 hours 4 minutes 32 seconds 341 msec
