
                                 *****************
                                 * O   R   C   A *
                                 *****************

                                            #,                                       
                                            ###                                      
                                            ####                                     
                                            #####                                    
                                            ######                                   
                                           ########,                                 
                                     ,,################,,,,,                         
                               ,,#################################,,                 
                          ,,##########################################,,             
                       ,#########################################, ''#####,          
                    ,#############################################,,   '####,        
                  ,##################################################,,,,####,       
                ,###########''''           ''''###############################       
              ,#####''   ,,,,##########,,,,          '''####'''          '####       
            ,##' ,,,,###########################,,,                        '##       
           ' ,,###''''                  '''############,,,                           
         ,,##''                                '''############,,,,        ,,,,,,###''
      ,#''                                            '''#######################'''  
     '                                                          ''''####''''         
             ,#######,   #######,   ,#######,      ##                                
            ,#'     '#,  ##    ##  ,#'     '#,    #''#        ######   ,####,        
            ##       ##  ##   ,#'  ##            #'  '#       #        #'  '#        
            ##       ##  #######   ##           ,######,      #####,   #    #        
            '#,     ,#'  ##    ##  '#,     ,#' ,#      #,         ##   #,  ,#        
             '#######'   ##     ##  '#######'  #'      '#     #####' # '####'        



                  #######################################################
                  #                        -***-                        #
                  #          Department of theory and spectroscopy      #
                  #    Directorship and core code : Frank Neese         #
                  #        Max Planck Institute fuer Kohlenforschung    #
                  #                Kaiser Wilhelm Platz 1               #
                  #                 D-45470 Muelheim/Ruhr               #
                  #                      Germany                        #
                  #                                                     #
                  #                  All rights reserved                #
                  #                        -***-                        #
                  #######################################################


                         Program Version 5.0.3 -  RELEASE  -


 With contributions from (in alphabetic order):
   Daniel Aravena         : Magnetic Suceptibility
   Michael Atanasov       : Ab Initio Ligand Field Theory (pilot matlab implementation)
   Alexander A. Auer      : GIAO ZORA, VPT2 properties, NMR spectrum
   Ute Becker             : Parallelization
   Giovanni Bistoni       : ED, misc. LED, open-shell LED, HFLD
   Martin Brehm           : Molecular dynamics
   Dmytro Bykov           : SCF Hessian
   Vijay G. Chilkuri      : MRCI spin determinant printing, contributions to CSF-ICE
   Dipayan Datta          : RHF DLPNO-CCSD density
   Achintya Kumar Dutta   : EOM-CC, STEOM-CC
   Dmitry Ganyushin       : Spin-Orbit,Spin-Spin,Magnetic field MRCI
   Miquel Garcia          : C-PCM and meta-GGA Hessian, CC/C-PCM, Gaussian charge scheme
   Yang Guo               : DLPNO-NEVPT2, F12-NEVPT2, CIM, IAO-localization
   Andreas Hansen         : Spin unrestricted coupled pair/coupled cluster methods
   Benjamin Helmich-Paris : MC-RPA, TRAH-SCF, COSX integrals
   Lee Huntington         : MR-EOM, pCC
   Robert Izsak           : Overlap fitted RIJCOSX, COSX-SCS-MP3, EOM
   Marcus Kettner         : VPT2
   Christian Kollmar      : KDIIS, OOCD, Brueckner-CCSD(T), CCSD density, CASPT2, CASPT2-K
   Simone Kossmann        : Meta GGA functionals, TD-DFT gradient, OOMP2, MP2 Hessian
   Martin Krupicka        : Initial AUTO-CI
   Lucas Lang             : DCDCAS
   Marvin Lechner         : AUTO-CI (C++ implementation), FIC-MRCC
   Dagmar Lenk            : GEPOL surface, SMD
   Dimitrios Liakos       : Extrapolation schemes; Compound Job, initial MDCI parallelization
   Dimitrios Manganas     : Further ROCIS development; embedding schemes
   Dimitrios Pantazis     : SARC Basis sets
   Anastasios Papadopoulos: AUTO-CI, single reference methods and gradients
   Taras Petrenko         : DFT Hessian,TD-DFT gradient, ASA, ECA, R-Raman, ABS, FL, XAS/XES, NRVS
   Peter Pinski           : DLPNO-MP2, DLPNO-MP2 Gradient
   Christoph Reimann      : Effective Core Potentials
   Marius Retegan         : Local ZFS, SOC
   Christoph Riplinger    : Optimizer, TS searches, QM/MM, DLPNO-CCSD(T), (RO)-DLPNO pert. Triples
   Tobias Risthaus        : Range-separated hybrids, TD-DFT gradient, RPA, STAB
   Michael Roemelt        : Original ROCIS implementation
   Masaaki Saitow         : Open-shell DLPNO-CCSD energy and density
   Barbara Sandhoefer     : DKH picture change effects
   Avijit Sen             : IP-ROCIS
   Kantharuban Sivalingam : CASSCF convergence, NEVPT2, FIC-MRCI
   Bernardo de Souza      : ESD, SOC TD-DFT
   Georgi Stoychev        : AutoAux, RI-MP2 NMR, DLPNO-MP2 response
   Willem Van den Heuvel  : Paramagnetic NMR
   Boris Wezisla          : Elementary symmetry handling
   Frank Wennmohs         : Technical directorship


 We gratefully acknowledge several colleagues who have allowed us to
 interface, adapt or use parts of their codes:
   Stefan Grimme, W. Hujo, H. Kruse, P. Pracht,  : VdW corrections, initial TS optimization,
                  C. Bannwarth, S. Ehlert          DFT functionals, gCP, sTDA/sTD-DF
   Ed Valeev, F. Pavosevic, A. Kumar             : LibInt (2-el integral package), F12 methods
   Garnet Chan, S. Sharma, J. Yang, R. Olivares  : DMRG
   Ulf Ekstrom                                   : XCFun DFT Library
   Mihaly Kallay                                 : mrcc  (arbitrary order and MRCC methods)
   Jiri Pittner, Ondrej Demel                    : Mk-CCSD
   Frank Weinhold                                : gennbo (NPA and NBO analysis)
   Christopher J. Cramer and Donald G. Truhlar   : smd solvation model
   Lars Goerigk                                  : TD-DFT with DH, B97 family of functionals
   V. Asgeirsson, H. Jonsson                     : NEB implementation
   FAccTs GmbH                                   : IRC, NEB, NEB-TS, DLPNO-Multilevel, CI-OPT
                                                   MM, QMMM, 2- and 3-layer-ONIOM, Crystal-QMMM,
                                                   LR-CPCM, SF, NACMEs, symmetry and pop. for TD-DFT,
                                                   nearIR, NL-DFT gradient (VV10), updates on ESD,
                                                   ML-optimized integration grids
   S Lehtola, MJT Oliveira, MAL Marques          : LibXC Library
   Liviu Ungur et al                             : ANISO software


 Your calculation uses the libint2 library for the computation of 2-el integrals
 For citations please refer to: http://libint.valeyev.net

 Your ORCA version has been built with support for libXC version: 5.1.0
 For citations please refer to: https://tddft.org/programs/libxc/

 This ORCA versions uses:
   CBLAS   interface :  Fast vector & matrix operations
   LAPACKE interface :  Fast linear algebra routines
   SCALAPACK package :  Parallel linear algebra routines
   Shared memory     :  Shared parallel matrices
   BLAS/LAPACK       :  OpenBLAS 0.3.15  USE64BITINT DYNAMIC_ARCH NO_AFFINITY Prescott SINGLE_THREADED
        Core in use  :  Prescott
   Copyright (c) 2011-2014, The OpenBLAS Project




***************************************
The coordinates will be read from file: 4sa4am-44_10_163.xyz
***************************************


Your calculation utilizes the atom-pairwise dispersion correction
with the Becke-Johnson damping scheme (D3BJ)
Cite in your paper:
S.Grimme, S.Ehrlich, L.Goerigk, J Comput Chem, (2011), 32, 1456–1465 
S.Grimme, J.Antony, S.Ehrlich and H.Krieg, J.Chem.Phys., 132, (2010), 154104 
   

Your calculation employs the composite approach B97-3c by Grimme and coworkers.
For the correct reference, please check the publication list of the Grimme group:
http://www.thch.uni-bonn.de/tc/index.php?section=publikationen&subsection=grimme#2017
   

XCFun DFT library Copyright 2009-2010 Ulf Ekstrom and contributors.
See http://admol.org/xcfun for more information.
This is free software; see the source code for copying conditions.
There is ABSOLUTELY NO WARRANTY; not even for MERCHANTABILITY or FITNESS FOR A PARTICULAR PURPOSE.
For details see the documentation.
Scientific users of this library should cite U. Ekstrom, L. Visscher, R. Bast, A. J. Thorvaldsen and K. Ruud;
J.Chem.Theor.Comp. 2010, DOI: 10.1021/ct100117s
XCFun Version 0.99 

================================================================================

----- Orbital basis set information -----
Your calculation utilizes the basis: def2-mTZVP
----- AuxJ basis set information -----
Your calculation utilizes the basis: def2-mTZVP/J
================================================================================
                                        WARNINGS
                       Please study these warnings very carefully!
================================================================================


INFO   : the flag for use of the SHARK integral package has been found!

================================================================================
                                       INPUT FILE
================================================================================
NAME = 4sa4am-44_10_163.inp
|  1> ! B97-3c ENGRAD
|  2> %pal nprocs 1
|  3>     end
|  4> %Maxcore 3000.00
|  5> * xyzfile 0 1 4sa4am-44_10_163.xyz
|  6>   
|  7> 
|  8>                          ****END OF INPUT****
================================================================================

                     *******************************
                     * Energy+Gradient Calculation *
                     *******************************

---------------------------------
CARTESIAN COORDINATES (ANGSTROEM)
---------------------------------
  S      2.048392    1.936233   -0.741530
  O      2.247362    1.003667   -1.832587
  O      0.870538    2.779289   -0.948155
  O      2.072456    1.327287    0.572934
  O      3.321384    2.920523   -0.729710
  H      3.500218    3.223004   -1.627132
  S      1.301192   -0.626616    3.334033
  O      1.243190   -1.742873    2.359162
  O      0.204221    0.309590    3.051592
  O      1.414835   -1.041286    4.687416
  O      2.655009    0.165769    3.001877
  H      2.580303    0.653168    2.161498
  S     -0.843820   -2.240197   -2.207317
  O     -0.803582   -2.679001   -0.817685
  O     -2.065779   -1.525291   -2.539977
  O      0.358118   -1.540025   -2.619328
  O     -0.832544   -3.572251   -3.111224
  H     -1.666318   -4.040623   -2.993273
  S     -2.280494    0.633271   -0.019500
  O     -2.701880    1.496092   -1.101560
  O     -0.845814    0.310214   -0.114486
  O     -2.645447    1.071000    1.310092
  O     -3.056859   -0.762447   -0.193693
  H     -2.862339   -1.091870   -1.105582
  N     -1.377117   -1.706730    1.835438
  H     -1.627800   -0.729602    1.973656
  H     -1.498984   -1.935097    0.847551
  H     -0.368601   -1.809568    2.076723
  H     -1.949235   -2.302334    2.413929
  N     -0.539897    1.077002   -2.755349
  H     -0.117313    0.139814   -2.699171
  H     -0.025069    1.704246   -2.130664
  H     -0.517354    1.413928   -3.705001
  H     -1.500884    1.021528   -2.402757
  N     -0.291041    2.494613    1.615290
  H      0.063017    2.581081    0.658126
  H      0.129981    1.651374    2.046957
  H     -0.064893    3.309308    2.163635
  H     -1.295736    2.314149    1.587632
  N      1.573982   -1.247135   -0.261757
  H      2.261909   -0.743995   -0.814254
  H      1.367047   -2.148851   -0.673810
  H      1.853093   -1.353756    0.719400
  H      0.712552   -0.696602   -0.271436

----------------------------
CARTESIAN COORDINATES (A.U.)
----------------------------
  NO LB      ZA    FRAG     MASS         X           Y           Z
   0 S    16.0000    0    32.060    3.870900    3.658950   -1.401289
   1 O     8.0000    0    15.999    4.246899    1.896655   -3.463088
   2 O     8.0000    0    15.999    1.645078    5.252096   -1.791754
   3 O     8.0000    0    15.999    3.916374    2.508210    1.082688
   4 O     8.0000    0    15.999    6.276506    5.518989   -1.378952
   5 H     1.0000    0     1.008    6.614454    6.090594   -3.074834
   6 S    16.0000    0    32.060    2.458896   -1.184133    6.300409
   7 O     8.0000    0    15.999    2.349288   -3.293553    4.458171
   8 O     8.0000    0    15.999    0.385921    0.585040    5.766673
   9 O     8.0000    0    15.999    2.673650   -1.967745    8.857932
  10 O     8.0000    0    15.999    5.017240    0.313258    5.672725
  11 H     1.0000    0     1.008    4.876067    1.234308    4.084639
  12 S    16.0000    0    32.060   -1.594588   -4.233360   -4.171225
  13 O     8.0000    0    15.999   -1.518549   -5.062577   -1.545202
  14 O     8.0000    0    15.999   -3.903756   -2.882382   -4.799861
  15 O     8.0000    0    15.999    0.676744   -2.910225   -4.949813
  16 O     8.0000    0    15.999   -1.573280   -6.750576   -5.879361
  17 H     1.0000    0     1.008   -3.148885   -7.635670   -5.656467
  18 S    16.0000    0    32.060   -4.309509    1.196709   -0.036850
  19 O     8.0000    0    15.999   -5.105812    2.827203   -2.081647
  20 O     8.0000    0    15.999   -1.598358    0.586220   -0.216347
  21 O     8.0000    0    15.999   -4.999169    2.023896    2.475715
  22 O     8.0000    0    15.999   -5.776626   -1.440817   -0.366027
  23 H     1.0000    0     1.008   -5.409036   -2.063334   -2.089247
  24 N     7.0000    0    14.007   -2.602374   -3.225253    3.468475
  25 H     1.0000    0     1.008   -3.076096   -1.378748    3.729670
  26 H     1.0000    0     1.008   -2.832669   -3.656804    1.601639
  27 H     1.0000    0     1.008   -0.696556   -3.419588    3.924438
  28 H     1.0000    0     1.008   -3.683521   -4.350780    4.561665
  29 N     7.0000    0    14.007   -1.020258    2.035238   -5.206856
  30 H     1.0000    0     1.008   -0.221689    0.264211   -5.100693
  31 H     1.0000    0     1.008   -0.047374    3.220558   -4.026372
  32 H     1.0000    0     1.008   -0.977657    2.671936   -7.001438
  33 H     1.0000    0     1.008   -2.836260    1.930409   -4.540554
  34 N     7.0000    0    14.007   -0.549989    4.714136    3.052456
  35 H     1.0000    0     1.008    0.119086    4.877537    1.243679
  36 H     1.0000    0     1.008    0.245629    3.120645    3.868188
  37 H     1.0000    0     1.008   -0.122630    6.253685    4.088677
  38 H     1.0000    0     1.008   -2.448586    4.373108    3.000190
  39 N     7.0000    0    14.007    2.974396   -2.356744   -0.494650
  40 H     1.0000    0     1.008    4.274388   -1.405947   -1.538716
  41 H     1.0000    0     1.008    2.583344   -4.060739   -1.273317
  42 H     1.0000    0     1.008    3.501838   -2.558228    1.359470
  43 H     1.0000    0     1.008    1.346529   -1.316387   -0.512940

--------------------------------
INTERNAL COORDINATES (ANGSTROEM)
--------------------------------
 S      0   0   0     0.000000000000     0.00000000     0.00000000
 O      1   0   0     1.449025207513     0.00000000     0.00000000
 O      1   2   0     1.463139968364   112.02654483     0.00000000
 O      1   2   3     1.448865004221   114.22623002   129.48521382
 O      1   2   3     1.609184771657   106.89179671   243.59984270
 H      5   1   2     0.963765052490   109.38568474    46.52187209
 S      4   1   2     3.469330283732   162.75505902   297.43934537
 O      7   4   1     1.483160860772    84.80489683    48.87689922
 O      7   4   1     1.469557971436    69.76901932   296.53197826
 O      7   4   1     1.420039254467   154.84627595   189.63353673
 O      7   4   1     1.603441015160    50.88481559   163.82447786
 H     11   7   4     0.974358745541   111.16972922     1.49916664
 S      2   1   3     4.496496654779   115.63554845   291.90293985
 O     13   2   1     1.457821330358    96.81892654   309.68205554
 O     13   2   1     1.454282479044   104.00835529    65.39260252
 O     13   2   1     1.450740783397    26.61005896   179.49906924
 O     13   2   1     1.609826209806   129.71126659   191.40676363
 H     17  13   2     0.963568425694   109.11196030   182.57644233
 S     15  13   2     3.325401753739   101.53534576   304.28130752
 O     19  15  13     1.446678300963    80.73698187   140.03996068
 O     19  15  13     1.473666754853    75.28493957    24.80337495
 O     19  15  13     1.446586597820   155.41626671   274.41201092
 O     19  15  13     1.606585205890    52.05577869   260.55940260
 H     23  19  15     0.988887424242   107.11717840   352.30222731
 N      8   7   4     2.672377189594    99.03167995   266.00024108
 H     25   8   7     1.018197624687   103.16647136    29.42129941
 H     25   8   7     1.021236484901   107.67159012   143.98518742
 H     25   8   7     1.042064038143     5.33973141   243.83192656
 H     25   8   7     1.008322924270   115.84361611   268.63182243
 N     20  19  15     2.754055837837    97.45394481   306.61792267
 H     30  20  19     1.029589014126   115.33766825    32.14680375
 H     30  20  19     1.024067974509    86.28132031   283.38022086
 H     30  20  19     1.007901885333   122.17299904   170.80813527
 H     30  20  19     1.025131231344    20.90051531   107.21865475
 N      9   7   4     2.661310638071   139.96876272   346.06871589
 H     35   9   7     1.024205691437   120.62075332    41.48463495
 H     35   9   7     1.036652685835    14.49676449     6.13947669
 H     35   9   7     1.007745579373   109.16697114   270.79801984
 H     35   9   7     1.021147889905    93.01616130   155.99611180
 N     16  13   2     2.668754640244   100.34297953    46.11137240
 H     40  16  13     1.015699243677    83.24667523   182.73543829
 H     40  16  13     1.012768826459    56.61788010    62.07809652
 H     40  16  13     1.025641807499   163.26670806    18.67170588
 H     40  16  13     1.022371084494    70.54058816   293.89287488

---------------------------
INTERNAL COORDINATES (A.U.)
---------------------------
 S      0   0   0     0.000000000000     0.00000000     0.00000000
 O      1   0   0     2.738260803347     0.00000000     0.00000000
 O      1   2   0     2.764933835801   112.02654483     0.00000000
 O      1   2   3     2.737958063000   114.22623002   129.48521382
 O      1   2   3     3.040918517308   106.89179671   243.59984270
 H      5   1   2     1.821252006650   109.38568474    46.52187209
 S      4   1   2     6.556084104372   162.75505902   297.43934537
 O      7   4   1     2.802767839411    84.80489683    48.87689922
 O      7   4   1     2.777062103934    69.76901932   296.53197826
 O      7   4   1     2.683485290361   154.84627595   189.63353673
 O      7   4   1     3.030064390549    50.88481559   163.82447786
 H     11   7   4     1.841271185264   111.16972922     1.49916664
 S      2   1   3     8.497147239625   115.63554845   291.90293985
 O     13   2   1     2.754883066565    96.81892654   309.68205554
 O     13   2   1     2.748195606753   104.00835529    65.39260252
 O     13   2   1     2.741502771930    26.61005896   179.49906924
 O     13   2   1     3.042130659741   129.71126659   191.40676363
 H     17  13   2     1.820880435855   109.11196030   182.57644233
 S     15  13   2     6.284098599828   101.53534576   304.28130752
 O     19  15  13     2.733825792707    80.73698187   140.03996068
 O     19  15  13     2.784826579338    75.28493957    24.80337495
 O     19  15  13     2.733652498881   155.41626671   274.41201092
 O     19  15  13     3.036006049941    52.05577869   260.55940260
 H     23  19  15     1.868726409095   107.11717840   352.30222731
 N      8   7   4     5.050061014870    99.03167995   266.00024108
 H     25   8   7     1.924114660868   103.16647136    29.42129941
 H     25   8   7     1.929857274432   107.67159012   143.98518742
 H     25   8   7     1.969215646098     5.33973141   243.83192656
 H     25   8   7     1.905454181424   115.84361611   268.63182243
 N     20  19  15     5.204411291040    97.45394481   306.61792267
 H     30  20  19     1.945641267191   115.33766825    32.14680375
 H     30  20  19     1.935208014341    86.28132031   283.38022086
 H     30  20  19     1.904658533143   122.17299904   170.80813527
 H     30  20  19     1.937217278569    20.90051531   107.21865475
 N      9   7   4     5.029148263245   139.96876272   346.06871589
 H     35   9   7     1.935468261620   120.62075332    41.48463495
 H     35   9   7     1.958989672222    14.49676449     6.13947669
 H     35   9   7     1.904363157684   109.16697114   270.79801984
 H     35   9   7     1.929689854153    93.01616130   155.99611180
 N     16  13   2     5.043215388693   100.34297953    46.11137240
 H     40  16  13     1.919393404981    83.24667523   182.73543829
 H     40  16  13     1.913855718980    56.61788010    62.07809652
 H     40  16  13     1.938182127674   163.26670806    18.67170588
 H     40  16  13     1.932001356933    70.54058816   293.89287488

---------------------
BASIS SET INFORMATION
---------------------
There are 4 groups of distinct atoms

 Group   1 Type S   : 14s9p1d contracted to 5s4p1d pattern {73211/6111/1}
 Group   2 Type O   : 11s6p2d contracted to 5s3p2d pattern {62111/411/11}
 Group   3 Type H   : 5s contracted to 3s pattern {311}
 Group   4 Type N   : 11s6p1d contracted to 5s3p1d pattern {62111/411/1}

Atom   0S    basis set group =>   1
Atom   1O    basis set group =>   2
Atom   2O    basis set group =>   2
Atom   3O    basis set group =>   2
Atom   4O    basis set group =>   2
Atom   5H    basis set group =>   3
Atom   6S    basis set group =>   1
Atom   7O    basis set group =>   2
Atom   8O    basis set group =>   2
Atom   9O    basis set group =>   2
Atom  10O    basis set group =>   2
Atom  11H    basis set group =>   3
Atom  12S    basis set group =>   1
Atom  13O    basis set group =>   2
Atom  14O    basis set group =>   2
Atom  15O    basis set group =>   2
Atom  16O    basis set group =>   2
Atom  17H    basis set group =>   3
Atom  18S    basis set group =>   1
Atom  19O    basis set group =>   2
Atom  20O    basis set group =>   2
Atom  21O    basis set group =>   2
Atom  22O    basis set group =>   2
Atom  23H    basis set group =>   3
Atom  24N    basis set group =>   4
Atom  25H    basis set group =>   3
Atom  26H    basis set group =>   3
Atom  27H    basis set group =>   3
Atom  28H    basis set group =>   3
Atom  29N    basis set group =>   4
Atom  30H    basis set group =>   3
Atom  31H    basis set group =>   3
Atom  32H    basis set group =>   3
Atom  33H    basis set group =>   3
Atom  34N    basis set group =>   4
Atom  35H    basis set group =>   3
Atom  36H    basis set group =>   3
Atom  37H    basis set group =>   3
Atom  38H    basis set group =>   3
Atom  39N    basis set group =>   4
Atom  40H    basis set group =>   3
Atom  41H    basis set group =>   3
Atom  42H    basis set group =>   3
Atom  43H    basis set group =>   3
---------------------------------
AUXILIARY/J BASIS SET INFORMATION
---------------------------------
There are 4 groups of distinct atoms

 Group   1 Type S   : 14s5p5d2f1g contracted to 8s4p3d1f1g pattern {71111111/2111/311/2/1}
 Group   2 Type O   : 8s3p3d contracted to 6s3p3d pattern {311111/111/111}
 Group   3 Type H   : 5s2p contracted to 3s1p pattern {311/2}
 Group   4 Type N   : 8s3p3d contracted to 6s3p3d pattern {311111/111/111}

Atom   0S    basis set group =>   1
Atom   1O    basis set group =>   2
Atom   2O    basis set group =>   2
Atom   3O    basis set group =>   2
Atom   4O    basis set group =>   2
Atom   5H    basis set group =>   3
Atom   6S    basis set group =>   1
Atom   7O    basis set group =>   2
Atom   8O    basis set group =>   2
Atom   9O    basis set group =>   2
Atom  10O    basis set group =>   2
Atom  11H    basis set group =>   3
Atom  12S    basis set group =>   1
Atom  13O    basis set group =>   2
Atom  14O    basis set group =>   2
Atom  15O    basis set group =>   2
Atom  16O    basis set group =>   2
Atom  17H    basis set group =>   3
Atom  18S    basis set group =>   1
Atom  19O    basis set group =>   2
Atom  20O    basis set group =>   2
Atom  21O    basis set group =>   2
Atom  22O    basis set group =>   2
Atom  23H    basis set group =>   3
Atom  24N    basis set group =>   4
Atom  25H    basis set group =>   3
Atom  26H    basis set group =>   3
Atom  27H    basis set group =>   3
Atom  28H    basis set group =>   3
Atom  29N    basis set group =>   4
Atom  30H    basis set group =>   3
Atom  31H    basis set group =>   3
Atom  32H    basis set group =>   3
Atom  33H    basis set group =>   3
Atom  34N    basis set group =>   4
Atom  35H    basis set group =>   3
Atom  36H    basis set group =>   3
Atom  37H    basis set group =>   3
Atom  38H    basis set group =>   3
Atom  39N    basis set group =>   4
Atom  40H    basis set group =>   3
Atom  41H    basis set group =>   3
Atom  42H    basis set group =>   3
Atom  43H    basis set group =>   3
------------------------------------------------------------------------------
                           ORCA GTO INTEGRAL CALCULATION
                           -- RI-GTO INTEGRALS CHOSEN --
------------------------------------------------------------------------------
------------------------------------------------------------------------------
                   ___                                                        
                  /   \      - P O W E R E D   B Y -                         
                 /     \                                                     
                 |  |  |   _    _      __       _____    __    __             
                 |  |  |  | |  | |    /  \     |  _  \  |  |  /  |          
                  \  \/   | |  | |   /    \    | | | |  |  | /  /          
                 / \  \   | |__| |  /  /\  \   | |_| |  |  |/  /          
                |  |  |   |  __  | /  /__\  \  |    /   |      \           
                |  |  |   | |  | | |   __   |  |    \   |  |\   \          
                \     /   | |  | | |  |  |  |  | |\  \  |  | \   \       
                 \___/    |_|  |_| |__|  |__|  |_| \__\ |__|  \__/        
                                                                              
                      - O R C A' S   B I G   F R I E N D -                    
                                      &                                       
                       - I N T E G R A L  F E E D E R -                       
                                                                              
 v1 FN, 2020, v2 2021                                                         
------------------------------------------------------------------------------


Reading SHARK input file 4sa4am-44_10_163.SHARKINP.tmp ... ok
----------------------
SHARK INTEGRAL PACKAGE
----------------------

Number of atoms                             ...     44
Number of basis functions                   ...    608
Number of shells                            ...    296
Maximum angular momentum                    ...      2
Integral batch strategy                     ... SHARK/LIBINT Hybrid
RI-J (if used) integral strategy            ... SPLIT-RIJ (Revised 2003 algorithm where possible)
Printlevel                                  ...      1
Contraction scheme used                     ... SEGMENTED contraction
Coulomb Range Separation                    ... NOT USED
Exchange Range Separation                   ... NOT USED
Finite Nucleus Model                        ... NOT USED
Auxiliary Coulomb fitting basis             ... AVAILABLE
   # of basis functions in Aux-J            ...    924
   # of shells in Aux-J                     ...    388
   Maximum angular momentum in Aux-J        ...      4
Auxiliary J/K fitting basis                 ... NOT available
Auxiliary Correlation fitting basis         ... NOT available
Auxiliary 'external' fitting basis          ... NOT available
Integral threshold                          ...     2.500000e-11
Primitive cut-off                           ...     2.500000e-12
Primitive pair pre-selection threshold      ...     2.500000e-12

Calculating pre-screening integrals         ... done (  0.2 sec) Dimension = 296
Organizing shell pair data                  ... done (  0.4 sec)
Shell pair information
Total number of shell pairs                 ...     43956
Shell pairs after pre-screening             ...     31874
Total number of primitive shell pairs       ...    164538
Primitive shell pairs kept                  ...     71818
          la=0 lb=0:  10859 shell pairs
          la=1 lb=0:   9936 shell pairs
          la=1 lb=1:   2309 shell pairs
          la=2 lb=0:   5565 shell pairs
          la=2 lb=1:   2510 shell pairs
          la=2 lb=2:    695 shell pairs

Calculating one electron integrals          ... done (  0.2 sec)
Calculating RI/J V-Matrix + Cholesky decomp.... done (  0.1 sec)
Calculating Nuclear repulsion               ... done (  0.0 sec) ENN=   3996.942674425003 Eh

SHARK setup successfully completed in   1.4 seconds

Maximum memory used throughout the entire GTOINT-calculation: 229.0 MB
-------------------------------------------------------------------------------
                                 ORCA SCF
-------------------------------------------------------------------------------

------------
SCF SETTINGS
------------
Hamiltonian:
 Density Functional     Method          .... DFT(GTOs)
 Exchange Functional    Exchange        .... B973C
 Correlation Functional Correlation     .... B973C
 Gradients option       PostSCFGGA      .... off
   Density functional embedding theory  .... OFF
 RI-approximation to the Coulomb term is turned on
   Number of AuxJ basis functions       .... 924


General Settings:
 Integral files         IntName         .... 4sa4am-44_10_163
 Hartree-Fock type      HFTyp           .... RHF
 Total Charge           Charge          ....    0
 Multiplicity           Mult            ....    1
 Number of Electrons    NEL             ....  240
 Basis Dimension        Dim             ....  608
 Nuclear Repulsion      ENuc            ....   3996.9426744250 Eh

Convergence Acceleration:
 DIIS                   CNVDIIS         .... on
   Start iteration      DIISMaxIt       ....    12
   Startup error        DIISStart       ....  0.200000
   # of expansion vecs  DIISMaxEq       ....     5
   Bias factor          DIISBfac        ....   1.050
   Max. coefficient     DIISMaxC        ....  10.000
 Trust-Rad. Augm. Hess. CNVTRAH         .... auto
   Auto Start mean grad. ratio tolernc. ....  1.125000
   Auto Start start iteration           ....    20
   Auto Start num. interpolation iter.  ....    10
   Max. Number of Micro iterations      ....    16
   Max. Number of Macro iterations      .... Maxiter - #DIIS iter
   Number of Davidson start vectors     ....     2
   Converg. threshold I  (grad. norm)   ....   1.000e-05
   Converg. threshold II (energy diff.) ....   1.000e-08
   Grad. Scal. Fac. for Micro threshold ....   0.100
   Minimum threshold for Micro iter.    ....   0.010
   NR start threshold (gradient norm)   ....   0.001
   Initial trust radius                 ....   0.400
   Minimum AH scaling param. (alpha)    ....   1.000
   Maximum AH scaling param. (alpha)    .... 1000.000
   Orbital update algorithm             .... Taylor
   White noise on init. David. guess    .... on
   Maximum white noise                  ....   0.010
   Quad. conv. algorithm                .... NR
   COSX micro iterations for RIJONX calc.... off
 SOSCF                  CNVSOSCF        .... on
   Start iteration      SOSCFMaxIt      ....   150
   Startup grad/error   SOSCFStart      ....  0.003300
 Level Shifting         CNVShift        .... on
   Level shift para.    LevelShift      ....    0.2500
   Turn off err/grad.   ShiftErr        ....    0.0010
 Zerner damping         CNVZerner       .... off
 Static damping         CNVDamp         .... on
   Fraction old density DampFac         ....    0.7000
   Max. Damping (<1)    DampMax         ....    0.9800
   Min. Damping (>=0)   DampMin         ....    0.0000
   Turn off err/grad.   DampErr         ....    0.1000
 Fernandez-Rico         CNVRico         .... off

SCF Procedure:
 Maximum # iterations   MaxIter         ....   125
 SCF integral mode      SCFMode         .... Direct
   Integral package                     .... SHARK and LIBINT hybrid scheme
 Reset frequency        DirectResetFreq ....    20
 Integral Threshold     Thresh          ....  2.500e-11 Eh
 Primitive CutOff       TCut            ....  2.500e-12 Eh

Convergence Tolerance:
 Convergence Check Mode ConvCheckMode   .... Total+1el-Energy
 Convergence forced     ConvForced      .... 0
 Energy Change          TolE            ....  1.000e-08 Eh
 1-El. energy change                    ....  1.000e-05 Eh
 Orbital Gradient       TolG            ....  1.000e-05
 Orbital Rotation angle TolX            ....  1.000e-05
 DIIS Error             TolErr          ....  5.000e-07


Diagonalization of the overlap matrix:
Smallest eigenvalue                        ... 1.764e-04
Time for diagonalization                   ...    0.127 sec
Threshold for overlap eigenvalues          ... 1.000e-08
Number of eigenvalues below threshold      ... 0
Time for construction of square roots      ...    0.097 sec
Total time needed                          ...    0.225 sec

--------------------------------
INITIAL GUESS: MINIMAL BASIS EHT
--------------------------------
The minimal basis has 156 functions
EHT matrix was diagonalized
Basis set overlap was calculated now projecting the orbitals
Using GuessMode=FMatrix for the initial guess
C*T matrix was formed
Effective Fockian was calculated
Effective Fockian was diagonalized
Initial density was built
                      ------------------
                      INITIAL GUESS DONE
                      ------------------
-------------------
DFT GRID GENERATION
-------------------

General Integration Accuracy     IntAcc      ... 4.388
Radial Grid Type                 RadialGrid  ... OptM3 with GC (2021)
Angular Grid (max. ang.)         AngularGrid ... 4 (Lebedev-302)
Angular grid pruning method      GridPruning ... 4 (adaptive)
Weight generation scheme         WeightScheme... Becke
Basis function cutoff            BFCut       ... 1.0000e-11
Integration weight cutoff        WCut        ... 1.0000e-14
Angular grids for H and He will be reduced by one unit
Partially contracted basis set               ... off
Rotationally invariant grid construction     ... off

Total number of grid points                  ...   216766
Total number of batches                      ...     3412
Average number of points per batch           ...       63
Average number of grid points per atom       ...     4926
Time for grid setup =    4.905 sec

--------------
SCF ITERATIONS
--------------
ITER       Energy         Delta-E        Max-DP      RMS-DP      [F,P]     Damp
               ***  Starting incremental Fock matrix formation  ***
  0  -3015.0891727185   0.000000000000 0.69524485  0.00567425  0.8471126 0.7000
  1  -3019.3341026995  -4.244929981016 0.17374923  0.00241036  0.5995564 0.7000
  2  -3021.2661998373  -1.932097137823 0.11545494  0.00146448  0.4110350 0.7000
  3  -3022.7865068901  -1.520307052796 0.09347466  0.00113918  0.2747239 0.7000
                               ***Turning on DIIS***
  4  -3023.8649487343  -1.078441844175 0.07141996  0.00084815  0.1824940 0.7000
  5  -3024.6138841531  -0.748935418811 0.05134498  0.00062447  0.1225536 0.7000
  6  -3025.1368778840  -0.522993730898 0.12545492  0.00149913  0.0857496 0.0000
  7  -3026.3598732501  -1.222995366052 0.00282600  0.00004885  0.0040909 0.0000
  8  -3026.3598181357   0.000055114417 0.00127981  0.00001893  0.0052265 0.0000
                      *** Initiating the SOSCF procedure ***
                           *** Shutting down DIIS ***
                      *** Re-Reading the Fockian *** 
                      *** Removing any level shift *** 
ITER      Energy       Delta-E        Grad      Rot      Max-DP    RMS-DP
  9  -3026.35999624  -0.0001781067  0.000139  0.000139  0.000375  0.000008
               *** Restarting incremental Fock matrix formation ***
 10  -3026.36000681  -0.0000105687  0.000063  0.000191  0.000320  0.000006
 11  -3026.36000497   0.0000018407  0.000147  0.000122  0.000179  0.000003
 12  -3026.36000728  -0.0000023072  0.000007  0.000018  0.000048  0.000001
 13  -3026.36000723   0.0000000513  0.000016  0.000012  0.000028  0.000000
                  ***Gradient check signals convergence***
              ***Rediagonalizing the Fockian in SOSCF/NRSCF***

               *****************************************************
               *                     SUCCESS                       *
               *           SCF CONVERGED AFTER  14 CYCLES          *
               *****************************************************


----------------
TOTAL SCF ENERGY
----------------

Total Energy       :        -3026.36000729 Eh          -82351.44246 eV

Components:
Nuclear Repulsion  :         3996.94267443 Eh          108762.33954 eV
Electronic Energy  :        -7023.30268171 Eh         -191113.78201 eV
One Electron Energy:       -12141.66170895 Eh         -330391.41188 eV
Two Electron Energy:         5118.35902723 Eh          139277.62987 eV

Virial components:
Potential Energy   :        -6045.84432731 Eh         -164515.78797 eV
Kinetic Energy     :         3019.48432002 Eh           82164.34550 eV
Virial Ratio       :            2.00227711


DFT components:
N(Alpha)           :      119.999736188881 electrons
N(Beta)            :      119.999736188881 electrons
N(Total)           :      239.999472377762 electrons
E(XC)              :     -275.134282380060 Eh       
DFET-embed. en.    :        0.000000000000 Eh       

---------------
SCF CONVERGENCE
---------------

  Last Energy change         ...   -6.1367e-08  Tolerance :   1.0000e-08
  Last MAX-Density change    ...    1.8645e-05  Tolerance :   1.0000e-07
  Last RMS-Density change    ...    2.4639e-07  Tolerance :   5.0000e-09
  Last Orbital Gradient      ...    2.0799e-06  Tolerance :   1.0000e-05
  Last Orbital Rotation      ...    4.0514e-06  Tolerance :   1.0000e-05

             **** THE GBW FILE WAS UPDATED (4sa4am-44_10_163.gbw) ****
             **** DENSITY 4sa4am-44_10_163.scfp WAS UPDATED ****
             **** ENERGY FILE WAS UPDATED (4sa4am-44_10_163.en.tmp) ****
             **** THE GBW FILE WAS UPDATED (4sa4am-44_10_163.gbw) ****
             **** DENSITY 4sa4am-44_10_163.scfp WAS UPDATED ****
----------------
ORBITAL ENERGIES
----------------

  NO   OCC          E(Eh)            E(eV) 
   0   2.0000     -88.287066     -2402.4132 
   1   2.0000     -88.280378     -2402.2312 
   2   2.0000     -88.270051     -2401.9502 
   3   2.0000     -88.254058     -2401.5150 
   4   2.0000     -18.804251      -511.6897 
   5   2.0000     -18.799018      -511.5473 
   6   2.0000     -18.776426      -510.9325 
   7   2.0000     -18.766860      -510.6722 
   8   2.0000     -18.759390      -510.4689 
   9   2.0000     -18.757057      -510.4055 
  10   2.0000     -18.751701      -510.2597 
  11   2.0000     -18.750680      -510.2319 
  12   2.0000     -18.749740      -510.2064 
  13   2.0000     -18.745545      -510.0922 
  14   2.0000     -18.745434      -510.0892 
  15   2.0000     -18.738235      -509.8933 
  16   2.0000     -18.737303      -509.8679 
  17   2.0000     -18.733145      -509.7548 
  18   2.0000     -18.724688      -509.5247 
  19   2.0000     -18.714446      -509.2460 
  20   2.0000     -14.075077      -383.0023 
  21   2.0000     -14.074986      -382.9998 
  22   2.0000     -14.073337      -382.9550 
  23   2.0000     -14.072413      -382.9298 
  24   2.0000      -7.948086      -216.2784 
  25   2.0000      -7.941495      -216.0991 
  26   2.0000      -7.931229      -215.8197 
  27   2.0000      -7.914995      -215.3780 
  28   2.0000      -5.978678      -162.6881 
  29   2.0000      -5.975914      -162.6129 
  30   2.0000      -5.975194      -162.5933 
  31   2.0000      -5.972185      -162.5114 
  32   2.0000      -5.968918      -162.4225 
  33   2.0000      -5.968866      -162.4211 
  34   2.0000      -5.961647      -162.2247 
  35   2.0000      -5.959176      -162.1574 
  36   2.0000      -5.958357      -162.1351 
  37   2.0000      -5.945796      -161.7933 
  38   2.0000      -5.942879      -161.7140 
  39   2.0000      -5.941824      -161.6853 
  40   2.0000      -1.109597       -30.1937 
  41   2.0000      -1.103157       -30.0184 
  42   2.0000      -1.092433       -29.7266 
  43   2.0000      -1.074760       -29.2457 
  44   2.0000      -0.980027       -26.6679 
  45   2.0000      -0.974458       -26.5164 
  46   2.0000      -0.958121       -26.0718 
  47   2.0000      -0.954476       -25.9726 
  48   2.0000      -0.949180       -25.8285 
  49   2.0000      -0.944947       -25.7133 
  50   2.0000      -0.942783       -25.6544 
  51   2.0000      -0.941359       -25.6157 
  52   2.0000      -0.940741       -25.5989 
  53   2.0000      -0.929392       -25.2900 
  54   2.0000      -0.923741       -25.1363 
  55   2.0000      -0.917039       -24.9539 
  56   2.0000      -0.904199       -24.6045 
  57   2.0000      -0.903469       -24.5846 
  58   2.0000      -0.900625       -24.5073 
  59   2.0000      -0.899489       -24.4763 
  60   2.0000      -0.613412       -16.6918 
  61   2.0000      -0.608607       -16.5610 
  62   2.0000      -0.585708       -15.9379 
  63   2.0000      -0.581742       -15.8300 
  64   2.0000      -0.532549       -14.4914 
  65   2.0000      -0.530547       -14.4369 
  66   2.0000      -0.527461       -14.3530 
  67   2.0000      -0.525539       -14.3007 
  68   2.0000      -0.522926       -14.2295 
  69   2.0000      -0.521012       -14.1775 
  70   2.0000      -0.517478       -14.0813 
  71   2.0000      -0.516935       -14.0665 
  72   2.0000      -0.515937       -14.0394 
  73   2.0000      -0.513527       -13.9738 
  74   2.0000      -0.510941       -13.9034 
  75   2.0000      -0.508911       -13.8482 
  76   2.0000      -0.500491       -13.6191 
  77   2.0000      -0.495750       -13.4901 
  78   2.0000      -0.481679       -13.1071 
  79   2.0000      -0.476310       -12.9610 
  80   2.0000      -0.455957       -12.4072 
  81   2.0000      -0.454684       -12.3726 
  82   2.0000      -0.453001       -12.3268 
  83   2.0000      -0.449577       -12.2336 
  84   2.0000      -0.442069       -12.0293 
  85   2.0000      -0.435956       -11.8630 
  86   2.0000      -0.424624       -11.5546 
  87   2.0000      -0.417501       -11.3608 
  88   2.0000      -0.408579       -11.1180 
  89   2.0000      -0.404932       -11.0188 
  90   2.0000      -0.392428       -10.6785 
  91   2.0000      -0.369136       -10.0447 
  92   2.0000      -0.349348        -9.5063 
  93   2.0000      -0.343879        -9.3574 
  94   2.0000      -0.339260        -9.2317 
  95   2.0000      -0.338102        -9.2002 
  96   2.0000      -0.335256        -9.1228 
  97   2.0000      -0.334089        -9.0910 
  98   2.0000      -0.329228        -8.9588 
  99   2.0000      -0.326080        -8.8731 
 100   2.0000      -0.324070        -8.8184 
 101   2.0000      -0.320754        -8.7282 
 102   2.0000      -0.318498        -8.6668 
 103   2.0000      -0.313143        -8.5210 
 104   2.0000      -0.310721        -8.4551 
 105   2.0000      -0.305838        -8.3223 
 106   2.0000      -0.297691        -8.1006 
 107   2.0000      -0.295107        -8.0303 
 108   2.0000      -0.290747        -7.9116 
 109   2.0000      -0.284513        -7.7420 
 110   2.0000      -0.278555        -7.5799 
 111   2.0000      -0.271917        -7.3992 
 112   2.0000      -0.264623        -7.2008 
 113   2.0000      -0.262809        -7.1514 
 114   2.0000      -0.255895        -6.9633 
 115   2.0000      -0.254534        -6.9262 
 116   2.0000      -0.252759        -6.8779 
 117   2.0000      -0.247175        -6.7260 
 118   2.0000      -0.244848        -6.6626 
 119   2.0000      -0.224980        -6.1220 
 120   0.0000      -0.020923        -0.5694 
 121   0.0000      -0.005219        -0.1420 
 122   0.0000       0.003578         0.0974 
 123   0.0000       0.009612         0.2615 
 124   0.0000       0.010733         0.2921 
 125   0.0000       0.029358         0.7989 
 126   0.0000       0.046478         1.2647 
 127   0.0000       0.047084         1.2812 
 128   0.0000       0.053617         1.4590 
 129   0.0000       0.058557         1.5934 
 130   0.0000       0.063435         1.7262 
 131   0.0000       0.065287         1.7766 
 132   0.0000       0.072091         1.9617 
 133   0.0000       0.075984         2.0676 
 134   0.0000       0.080283         2.1846 
 135   0.0000       0.081977         2.2307 
 136   0.0000       0.088741         2.4148 
 137   0.0000       0.092927         2.5287 
 138   0.0000       0.095935         2.6105 
 139   0.0000       0.100391         2.7318 
 140   0.0000       0.105123         2.8605 
 141   0.0000       0.110351         3.0028 
 142   0.0000       0.114919         3.1271 
 143   0.0000       0.121967         3.3189 
 144   0.0000       0.126755         3.4492 
 145   0.0000       0.131207         3.5703 
 146   0.0000       0.132964         3.6181 
 147   0.0000       0.135032         3.6744 
 148   0.0000       0.141827         3.8593 
 149   0.0000       0.148029         4.0281 
 150   0.0000       0.151411         4.1201 
 151   0.0000       0.156401         4.2559 
 152   0.0000       0.160557         4.3690 
 153   0.0000       0.162382         4.4186 
 154   0.0000       0.163594         4.4516 
 155   0.0000       0.166861         4.5405 
 156   0.0000       0.169156         4.6030 
 157   0.0000       0.171537         4.6678 
 158   0.0000       0.174653         4.7526 
 159   0.0000       0.179144         4.8748 
 160   0.0000       0.179559         4.8860 
 161   0.0000       0.188420         5.1272 
 162   0.0000       0.191640         5.2148 
 163   0.0000       0.193751         5.2722 
 164   0.0000       0.199794         5.4367 
 165   0.0000       0.205785         5.5997 
 166   0.0000       0.208284         5.6677 
 167   0.0000       0.211497         5.7551 
 168   0.0000       0.215480         5.8635 
 169   0.0000       0.217600         5.9212 
 170   0.0000       0.222034         6.0419 
 171   0.0000       0.223306         6.0765 
 172   0.0000       0.233126         6.3437 
 173   0.0000       0.236695         6.4408 
 174   0.0000       0.238884         6.5004 
 175   0.0000       0.241069         6.5598 
 176   0.0000       0.248913         6.7733 
 177   0.0000       0.250960         6.8290 
 178   0.0000       0.255996         6.9660 
 179   0.0000       0.263495         7.1701 
 180   0.0000       0.266265         7.2454 
 181   0.0000       0.267669         7.2836 
 182   0.0000       0.278895         7.5891 
 183   0.0000       0.285352         7.7648 
 184   0.0000       0.287353         7.8193 
 185   0.0000       0.289820         7.8864 
 186   0.0000       0.295894         8.0517 
 187   0.0000       0.298507         8.1228 
 188   0.0000       0.306781         8.3479 
 189   0.0000       0.311211         8.4685 
 190   0.0000       0.315095         8.5742 
 191   0.0000       0.321963         8.7611 
 192   0.0000       0.326756         8.8915 
 193   0.0000       0.331768         9.0279 
 194   0.0000       0.334216         9.0945 
 195   0.0000       0.338412         9.2087 
 196   0.0000       0.340602         9.2682 
 197   0.0000       0.347690         9.4611 
 198   0.0000       0.350665         9.5421 
 199   0.0000       0.357969         9.7408 
 200   0.0000       0.360660         9.8141 
 201   0.0000       0.365663         9.9502 
 202   0.0000       0.366816         9.9816 
 203   0.0000       0.367775        10.0077 
 204   0.0000       0.374143        10.1810 
 205   0.0000       0.377769        10.2796 
 206   0.0000       0.383823        10.4444 
 207   0.0000       0.386254        10.5105 
 208   0.0000       0.387630        10.5480 
 209   0.0000       0.390320        10.6211 
 210   0.0000       0.393882        10.7181 
 211   0.0000       0.395977        10.7751 
 212   0.0000       0.397557        10.8181 
 213   0.0000       0.399120        10.8606 
 214   0.0000       0.402542        10.9537 
 215   0.0000       0.407162        11.0795 
 216   0.0000       0.408246        11.1089 
 217   0.0000       0.418299        11.3825 
 218   0.0000       0.420452        11.4411 
 219   0.0000       0.428035        11.6474 
 220   0.0000       0.432640        11.7727 
 221   0.0000       0.433873        11.8063 
 222   0.0000       0.442325        12.0363 
 223   0.0000       0.446144        12.1402 
 224   0.0000       0.455752        12.4016 
 225   0.0000       0.457299        12.4437 
 226   0.0000       0.461468        12.5572 
 227   0.0000       0.468375        12.7451 
 228   0.0000       0.469193        12.7674 
 229   0.0000       0.472223        12.8498 
 230   0.0000       0.476339        12.9619 
 231   0.0000       0.482044        13.1171 
 232   0.0000       0.485006        13.1977 
 233   0.0000       0.489642        13.3238 
 234   0.0000       0.491461        13.3733 
 235   0.0000       0.496411        13.5080 
 236   0.0000       0.502127        13.6636 
 237   0.0000       0.506075        13.7710 
 238   0.0000       0.514947        14.0124 
 239   0.0000       0.526616        14.3300 
 240   0.0000       0.530744        14.4423 
 241   0.0000       0.534789        14.5524 
 242   0.0000       0.543523        14.7900 
 243   0.0000       0.549126        14.9425 
 244   0.0000       0.550059        14.9679 
 245   0.0000       0.553000        15.0479 
 246   0.0000       0.566131        15.4052 
 247   0.0000       0.573630        15.6093 
 248   0.0000       0.574957        15.6454 
 249   0.0000       0.584699        15.9105 
 250   0.0000       0.587389        15.9837 
 251   0.0000       0.588566        16.0157 
 252   0.0000       0.596801        16.2398 
 253   0.0000       0.600909        16.3516 
 254   0.0000       0.603113        16.4115 
 255   0.0000       0.611817        16.6484 
 256   0.0000       0.615053        16.7364 
 257   0.0000       0.622368        16.9355 
 258   0.0000       0.629517        17.1300 
 259   0.0000       0.633122        17.2281 
 260   0.0000       0.638495        17.3743 
 261   0.0000       0.644666        17.5422 
 262   0.0000       0.648639        17.6504 
 263   0.0000       0.651009        17.7149 
 264   0.0000       0.654994        17.8233 
 265   0.0000       0.660829        17.9821 
 266   0.0000       0.664942        18.0940 
 267   0.0000       0.674207        18.3461 
 268   0.0000       0.680604        18.5202 
 269   0.0000       0.683428        18.5970 
 270   0.0000       0.686894        18.6913 
 271   0.0000       0.695099        18.9146 
 272   0.0000       0.697294        18.9743 
 273   0.0000       0.701304        19.0834 
 274   0.0000       0.707123        19.2418 
 275   0.0000       0.711624        19.3643 
 276   0.0000       0.715880        19.4801 
 277   0.0000       0.722521        19.6608 
 278   0.0000       0.727588        19.7987 
 279   0.0000       0.731790        19.9130 
 280   0.0000       0.739950        20.1351 
 281   0.0000       0.745206        20.2781 
 282   0.0000       0.748564        20.3694 
 283   0.0000       0.752585        20.4789 
 284   0.0000       0.755780        20.5658 
 285   0.0000       0.763790        20.7838 
 286   0.0000       0.767854        20.8944 
 287   0.0000       0.771049        20.9813 
 288   0.0000       0.781123        21.2554 
 289   0.0000       0.786894        21.4125 
 290   0.0000       0.788846        21.4656 
 291   0.0000       0.793711        21.5980 
 292   0.0000       0.800424        21.7806 
 293   0.0000       0.804588        21.8940 
 294   0.0000       0.806797        21.9541 
 295   0.0000       0.809493        22.0274 
 296   0.0000       0.818268        22.2662 
 297   0.0000       0.825095        22.4520 
 298   0.0000       0.828424        22.5426 
 299   0.0000       0.829987        22.5851 
 300   0.0000       0.842833        22.9347 
 301   0.0000       0.845474        23.0065 
 302   0.0000       0.847662        23.0661 
 303   0.0000       0.855299        23.2739 
 304   0.0000       0.860926        23.4270 
 305   0.0000       0.868254        23.6264 
 306   0.0000       0.873275        23.7630 
 307   0.0000       0.875121        23.8133 
 308   0.0000       0.880952        23.9719 
 309   0.0000       0.884750        24.0753 
 310   0.0000       0.889996        24.2180 
 311   0.0000       0.897470        24.4214 
 312   0.0000       0.898728        24.4556 
 313   0.0000       0.901418        24.5288 
 314   0.0000       0.902912        24.5695 
 315   0.0000       0.907880        24.7047 
 316   0.0000       0.910639        24.7798 
 317   0.0000       0.913492        24.8574 
 318   0.0000       0.916579        24.9414 
 319   0.0000       0.927891        25.2492 
 320   0.0000       0.932303        25.3692 
 321   0.0000       0.939298        25.5596 
 322   0.0000       0.941855        25.6292 
 323   0.0000       0.948646        25.8140 
 324   0.0000       0.953814        25.9546 
 325   0.0000       0.960412        26.1341 
 326   0.0000       0.964750        26.2522 
 327   0.0000       0.966781        26.3074 
 328   0.0000       0.976239        26.5648 
 329   0.0000       0.981179        26.6993 
 330   0.0000       0.984922        26.8011 
 331   0.0000       0.988741        26.9050 
 332   0.0000       0.994653        27.0659 
 333   0.0000       1.000549        27.2263 
 334   0.0000       1.003332        27.3020 
 335   0.0000       1.009520        27.4704 
 336   0.0000       1.017282        27.6817 
 337   0.0000       1.021705        27.8020 
 338   0.0000       1.025577        27.9074 
 339   0.0000       1.035036        28.1648 
 340   0.0000       1.041701        28.3461 
 341   0.0000       1.051640        28.6166 
 342   0.0000       1.057714        28.7819 
 343   0.0000       1.058624        28.8066 
 344   0.0000       1.063043        28.9269 
 345   0.0000       1.064636        28.9702 
 346   0.0000       1.076328        29.2884 
 347   0.0000       1.081996        29.4426 
 348   0.0000       1.087719        29.5983 
 349   0.0000       1.096106        29.8266 
 350   0.0000       1.100037        29.9335 
 351   0.0000       1.106508        30.1096 
 352   0.0000       1.111229        30.2381 
 353   0.0000       1.116358        30.3776 
 354   0.0000       1.120402        30.4877 
 355   0.0000       1.123551        30.5734 
 356   0.0000       1.134024        30.8584 
 357   0.0000       1.138134        30.9702 
 358   0.0000       1.151533        31.3348 
 359   0.0000       1.152396        31.3583 
 360   0.0000       1.174654        31.9640 
 361   0.0000       1.182277        32.1714 
 362   0.0000       1.206923        32.8420 
 363   0.0000       1.227640        33.4058 
 364   0.0000       1.230511        33.4839 
 365   0.0000       1.247087        33.9349 
 366   0.0000       1.272997        34.6400 
 367   0.0000       1.294404        35.2225 
 368   0.0000       1.312627        35.7184 
 369   0.0000       1.327673        36.1278 
 370   0.0000       1.358943        36.9787 
 371   0.0000       1.388314        37.7779 
 372   0.0000       1.525668        41.5155 
 373   0.0000       1.538543        41.8659 
 374   0.0000       1.549104        42.1533 
 375   0.0000       1.561362        42.4868 
 376   0.0000       1.575392        42.8686 
 377   0.0000       1.599379        43.5213 
 378   0.0000       1.609984        43.8099 
 379   0.0000       1.682404        45.7805 
 380   0.0000       1.760182        47.8970 
 381   0.0000       1.773389        48.2564 
 382   0.0000       1.781289        48.4713 
 383   0.0000       1.787323        48.6355 
 384   0.0000       1.811967        49.3061 
 385   0.0000       1.822662        49.5971 
 386   0.0000       1.827744        49.7354 
 387   0.0000       1.830934        49.8223 
 388   0.0000       1.853595        50.4389 
 389   0.0000       1.855432        50.4889 
 390   0.0000       1.861104        50.6432 
 391   0.0000       1.894961        51.5645 
 392   0.0000       1.896371        51.6029 
 393   0.0000       1.907239        51.8986 
 394   0.0000       1.909646        51.9641 
 395   0.0000       1.917999        52.1914 
 396   0.0000       1.941571        52.8328 
 397   0.0000       1.943459        52.8842 
 398   0.0000       1.948643        53.0253 
 399   0.0000       1.953937        53.1693 
 400   0.0000       1.957233        53.2590 
 401   0.0000       1.962328        53.3977 
 402   0.0000       1.972031        53.6617 
 403   0.0000       1.975366        53.7524 
 404   0.0000       1.976600        53.7860 
 405   0.0000       1.981335        53.9149 
 406   0.0000       1.988882        54.1202 
 407   0.0000       1.995040        54.2878 
 408   0.0000       2.005457        54.5713 
 409   0.0000       2.009456        54.6801 
 410   0.0000       2.014704        54.8229 
 411   0.0000       2.018983        54.9393 
 412   0.0000       2.029126        55.2153 
 413   0.0000       2.032626        55.3106 
 414   0.0000       2.034612        55.3646 
 415   0.0000       2.048538        55.7436 
 416   0.0000       2.049082        55.7584 
 417   0.0000       2.051798        55.8323 
 418   0.0000       2.056981        55.9733 
 419   0.0000       2.062957        56.1359 
 420   0.0000       2.063926        56.1623 
 421   0.0000       2.071840        56.3776 
 422   0.0000       2.075709        56.4829 
 423   0.0000       2.081063        56.6286 
 424   0.0000       2.083919        56.7063 
 425   0.0000       2.091986        56.9258 
 426   0.0000       2.099895        57.1410 
 427   0.0000       2.101394        57.1818 
 428   0.0000       2.104440        57.2647 
 429   0.0000       2.113554        57.5127 
 430   0.0000       2.116110        57.5823 
 431   0.0000       2.120889        57.7123 
 432   0.0000       2.125151        57.8283 
 433   0.0000       2.142209        58.2925 
 434   0.0000       2.144603        58.3576 
 435   0.0000       2.150169        58.5091 
 436   0.0000       2.153774        58.6072 
 437   0.0000       2.159206        58.7550 
 438   0.0000       2.161128        58.8073 
 439   0.0000       2.170754        59.0692 
 440   0.0000       2.175934        59.2102 
 441   0.0000       2.180312        59.3293 
 442   0.0000       2.189096        59.5683 
 443   0.0000       2.198730        59.8305 
 444   0.0000       2.204251        59.9807 
 445   0.0000       2.210186        60.1422 
 446   0.0000       2.217016        60.3281 
 447   0.0000       2.221941        60.4621 
 448   0.0000       2.229477        60.6672 
 449   0.0000       2.238379        60.9094 
 450   0.0000       2.247964        61.1702 
 451   0.0000       2.252098        61.2827 
 452   0.0000       2.256892        61.4132 
 453   0.0000       2.264933        61.6320 
 454   0.0000       2.275133        61.9095 
 455   0.0000       2.282253        62.1033 
 456   0.0000       2.289670        62.3051 
 457   0.0000       2.291445        62.3534 
 458   0.0000       2.311715        62.9050 
 459   0.0000       2.320462        63.1430 
 460   0.0000       2.328535        63.3626 
 461   0.0000       2.344328        63.7924 
 462   0.0000       2.351662        63.9920 
 463   0.0000       2.365296        64.3630 
 464   0.0000       2.373064        64.5744 
 465   0.0000       2.383055        64.8462 
 466   0.0000       2.394582        65.1599 
 467   0.0000       2.406631        65.4878 
 468   0.0000       2.411623        65.6236 
 469   0.0000       2.418364        65.8070 
 470   0.0000       2.424838        65.9832 
 471   0.0000       2.432005        66.1782 
 472   0.0000       2.444328        66.5136 
 473   0.0000       2.455352        66.8135 
 474   0.0000       2.463212        67.0274 
 475   0.0000       2.473697        67.3127 
 476   0.0000       2.480149        67.4883 
 477   0.0000       2.487097        67.6773 
 478   0.0000       2.487714        67.6941 
 479   0.0000       2.496865        67.9432 
 480   0.0000       2.507426        68.2305 
 481   0.0000       2.515101        68.4394 
 482   0.0000       2.519368        68.5555 
 483   0.0000       2.529760        68.8383 
 484   0.0000       2.534289        68.9615 
 485   0.0000       2.542482        69.1845 
 486   0.0000       2.549901        69.3863 
 487   0.0000       2.560471        69.6740 
 488   0.0000       2.565571        69.8127 
 489   0.0000       2.569252        69.9129 
 490   0.0000       2.577372        70.1339 
 491   0.0000       2.588222        70.4291 
 492   0.0000       2.595499        70.6271 
 493   0.0000       2.602909        70.8287 
 494   0.0000       2.611704        71.0681 
 495   0.0000       2.617260        71.2193 
 496   0.0000       2.633056        71.6491 
 497   0.0000       2.651386        72.1479 
 498   0.0000       2.672150        72.7129 
 499   0.0000       2.680815        72.9487 
 500   0.0000       2.704296        73.5876 
 501   0.0000       2.726269        74.1856 
 502   0.0000       2.737545        74.4924 
 503   0.0000       2.743790        74.6623 
 504   0.0000       2.763047        75.1863 
 505   0.0000       2.766103        75.2695 
 506   0.0000       2.779353        75.6300 
 507   0.0000       2.795455        76.0682 
 508   0.0000       2.798608        76.1540 
 509   0.0000       2.819511        76.7228 
 510   0.0000       2.828050        76.9552 
 511   0.0000       2.836745        77.1917 
 512   0.0000       2.844753        77.4097 
 513   0.0000       2.849991        77.5522 
 514   0.0000       2.855261        77.6956 
 515   0.0000       2.863124        77.9096 
 516   0.0000       2.873454        78.1907 
 517   0.0000       2.880006        78.3689 
 518   0.0000       2.884909        78.5024 
 519   0.0000       2.890336        78.6500 
 520   0.0000       2.898966        78.8849 
 521   0.0000       2.900443        78.9251 
 522   0.0000       2.907236        79.1099 
 523   0.0000       2.915258        79.3282 
 524   0.0000       2.921409        79.4956 
 525   0.0000       2.924590        79.5821 
 526   0.0000       2.937141        79.9237 
 527   0.0000       2.940907        80.0261 
 528   0.0000       2.949822        80.2687 
 529   0.0000       2.953944        80.3809 
 530   0.0000       2.959925        80.5437 
 531   0.0000       2.962810        80.6222 
 532   0.0000       2.975441        80.9659 
 533   0.0000       2.978523        81.0497 
 534   0.0000       2.990854        81.3853 
 535   0.0000       2.997746        81.5728 
 536   0.0000       3.005552        81.7852 
 537   0.0000       3.008898        81.8763 
 538   0.0000       3.020549        82.1933 
 539   0.0000       3.027191        82.3741 
 540   0.0000       3.035184        82.5916 
 541   0.0000       3.041955        82.7758 
 542   0.0000       3.049025        82.9682 
 543   0.0000       3.061615        83.3108 
 544   0.0000       3.074307        83.6561 
 545   0.0000       3.079129        83.7874 
 546   0.0000       3.101599        84.3988 
 547   0.0000       3.107331        84.5548 
 548   0.0000       3.123924        85.0063 
 549   0.0000       3.136940        85.3605 
 550   0.0000       3.151780        85.7643 
 551   0.0000       3.158629        85.9507 
 552   0.0000       3.187785        86.7441 
 553   0.0000       3.196758        86.9882 
 554   0.0000       3.205735        87.2325 
 555   0.0000       3.222948        87.7009 
 556   0.0000       3.229701        87.8846 
 557   0.0000       3.250511        88.4509 
 558   0.0000       3.267731        88.9195 
 559   0.0000       3.286415        89.4279 
 560   0.0000       3.304330        89.9154 
 561   0.0000       3.328191        90.5647 
 562   0.0000       3.345330        91.0311 
 563   0.0000       3.385338        92.1197 
 564   0.0000       3.425071        93.2009 
 565   0.0000       3.436876        93.5222 
 566   0.0000       3.451386        93.9170 
 567   0.0000       3.464055        94.2617 
 568   0.0000       3.470504        94.4372 
 569   0.0000       3.493199        95.0548 
 570   0.0000       3.520223        95.7901 
 571   0.0000       3.531645        96.1009 
 572   0.0000       3.537644        96.2642 
 573   0.0000       3.553532        96.6965 
 574   0.0000       3.571471        97.1847 
 575   0.0000       3.581966        97.4702 
 576   0.0000       3.608832        98.2013 
 577   0.0000       3.622026        98.5603 
 578   0.0000       3.632203        98.8373 
 579   0.0000       3.635245        98.9201 
 580   0.0000       3.658138        99.5430 
 581   0.0000       3.667510        99.7980 
 582   0.0000       3.689779       100.4040 
 583   0.0000       3.711373       100.9916 
 584   0.0000      19.871251       540.7242 
 585   0.0000      19.898045       541.4533 
 586   0.0000      20.055596       545.7405 
 587   0.0000      20.112178       547.2802 
 588   0.0000      31.614004       860.2608 
 589   0.0000      31.649933       861.2385 
 590   0.0000      31.659117       861.4884 
 591   0.0000      31.758699       864.1981 
 592   0.0000      43.263648      1177.2637 
 593   0.0000      43.286130      1177.8755 
 594   0.0000      43.346857      1179.5280 
 595   0.0000      43.360024      1179.8862 
 596   0.0000      43.382384      1180.4947 
 597   0.0000      43.393879      1180.8075 
 598   0.0000      43.419102      1181.4938 
 599   0.0000      43.434140      1181.9030 
 600   0.0000      43.446252      1182.2326 
 601   0.0000      43.468413      1182.8357 
 602   0.0000      43.488330      1183.3776 
 603   0.0000      43.572035      1185.6553 
 604   0.0000      43.607494      1186.6202 
 605   0.0000      43.654281      1187.8934 
 606   0.0000      43.666710      1188.2316 
 607   0.0000      43.831401      1192.7131 

                    ********************************
                    * MULLIKEN POPULATION ANALYSIS *
                    ********************************

-----------------------
MULLIKEN ATOMIC CHARGES
-----------------------
   0 S :    1.238054
   1 O :   -0.606203
   2 O :   -0.667181
   3 O :   -0.611670
   4 O :   -0.610884
   5 H :    0.460947
   6 S :    1.150276
   7 O :   -0.717929
   8 O :   -0.650776
   9 O :   -0.436251
  10 O :   -0.631928
  11 H :    0.448000
  12 S :    1.255487
  13 O :   -0.614312
  14 O :   -0.628541
  15 O :   -0.651001
  16 O :   -0.610697
  17 H :    0.460683
  18 S :    0.963122
  19 O :   -0.544466
  20 O :   -0.589134
  21 O :   -0.571800
  22 O :   -0.612039
  23 H :    0.431055
  24 N :   -0.778622
  25 H :    0.400828
  26 H :    0.428526
  27 H :    0.397212
  28 H :    0.379741
  29 N :   -0.773170
  30 H :    0.389794
  31 H :    0.397341
  32 H :    0.378262
  33 H :    0.398055
  34 N :   -0.818654
  35 H :    0.392266
  36 H :    0.466031
  37 H :    0.380378
  38 H :    0.407892
  39 N :   -0.798897
  40 H :    0.403324
  41 H :    0.400882
  42 H :    0.419815
  43 H :    0.476183
Sum of atomic charges:   -0.0000000

--------------------------------
MULLIKEN REDUCED ORBITAL CHARGES
--------------------------------
  0 S s       :     5.074998  s :     5.074998
      pz      :     2.932307  p :     8.800845
      px      :     2.910012
      py      :     2.958526
      dz2     :     0.212200  d :     0.886103
      dxz     :     0.150200
      dyz     :     0.189749
      dx2y2   :     0.138776
      dxy     :     0.195178
  1 O s       :     3.876775  s :     3.876775
      pz      :     1.458415  p :     4.689188
      px      :     1.724997
      py      :     1.505776
      dz2     :     0.010907  d :     0.040240
      dxz     :     0.004807
      dyz     :     0.015583
      dx2y2   :     0.004733
      dxy     :     0.004210
  2 O s       :     3.896972  s :     3.896972
      pz      :     1.743283  p :     4.717215
      px      :     1.368702
      py      :     1.605231
      dz2     :     0.011755  d :     0.052994
      dxz     :     0.010109
      dyz     :     0.011783
      dx2y2   :     0.004652
      dxy     :     0.014695
  3 O s       :     3.839553  s :     3.839553
      pz      :     1.320689  p :     4.728459
      px      :     1.753617
      py      :     1.654152
      dz2     :     0.018470  d :     0.043659
      dxz     :     0.003510
      dyz     :     0.008411
      dx2y2   :     0.006829
      dxy     :     0.006439
  4 O s       :     3.817047  s :     3.817047
      pz      :     1.533351  p :     4.740142
      px      :     1.550647
      py      :     1.656144
      dz2     :     0.019524  d :     0.053695
      dxz     :     0.008420
      dyz     :     0.010423
      dx2y2   :     0.004195
      dxy     :     0.011133
  5 H s       :     0.539053  s :     0.539053
  6 S s       :     5.061074  s :     5.061074
      pz      :     2.924947  p :     8.908765
      px      :     2.981248
      py      :     3.002569
      dz2     :     0.198249  d :     0.879886
      dxz     :     0.160999
      dyz     :     0.205316
      dx2y2   :     0.138495
      dxy     :     0.176827
  7 O s       :     3.879178  s :     3.879178
      pz      :     1.551212  p :     4.779202
      px      :     1.736480
      py      :     1.491510
      dz2     :     0.016386  d :     0.059549
      dxz     :     0.005700
      dyz     :     0.017858
      dx2y2   :     0.011563
      dxy     :     0.008042
  8 O s       :     3.850634  s :     3.850634
      pz      :     1.753601  p :     4.754425
      px      :     1.468539
      py      :     1.532285
      dz2     :     0.011921  d :     0.045717
      dxz     :     0.005844
      dyz     :     0.013253
      dx2y2   :     0.004559
      dxy     :     0.010140
  9 O s       :     3.832719  s :     3.832719
      pz      :     1.269948  p :     4.565266
      px      :     1.650504
      py      :     1.644815
      dz2     :     0.015110  d :     0.038265
      dxz     :     0.005271
      dyz     :     0.009709
      dx2y2   :     0.004061
      dxy     :     0.004114
 10 O s       :     3.813132  s :     3.813132
      pz      :     1.585079  p :     4.765159
      px      :     1.532636
      py      :     1.647443
      dz2     :     0.013809  d :     0.053638
      dxz     :     0.012644
      dyz     :     0.009112
      dx2y2   :     0.008793
      dxy     :     0.009280
 11 H s       :     0.552000  s :     0.552000
 12 S s       :     5.063235  s :     5.063235
      pz      :     2.948374  p :     8.799328
      px      :     2.928325
      py      :     2.922629
      dz2     :     0.180600  d :     0.881950
      dxz     :     0.174853
      dyz     :     0.181388
      dx2y2   :     0.178668
      dxy     :     0.166440
 13 O s       :     3.848974  s :     3.848974
      pz      :     1.279972  p :     4.727826
      px      :     1.754856
      py      :     1.692998
      dz2     :     0.013235  d :     0.037513
      dxz     :     0.006205
      dyz     :     0.009616
      dx2y2   :     0.005531
      dxy     :     0.002926
 14 O s       :     3.875461  s :     3.875461
      pz      :     1.729878  p :     4.715126
      px      :     1.376482
      py      :     1.608765
      dz2     :     0.010149  d :     0.037954
      dxz     :     0.006938
      dyz     :     0.005820
      dx2y2   :     0.005027
      dxy     :     0.010020
 15 O s       :     3.884636  s :     3.884636
      pz      :     1.713623  p :     4.710622
      px      :     1.413546
      py      :     1.583452
      dz2     :     0.010610  d :     0.055744
      dxz     :     0.008252
      dyz     :     0.008511
      dx2y2   :     0.011677
      dxy     :     0.016693
 16 O s       :     3.817531  s :     3.817531
      pz      :     1.722026  p :     4.736699
      px      :     1.581641
      py      :     1.433033
      dz2     :     0.008782  d :     0.056466
      dxz     :     0.009410
      dyz     :     0.011783
      dx2y2   :     0.012514
      dxy     :     0.013977
 17 H s       :     0.539317  s :     0.539317
 18 S s       :     5.139196  s :     5.139196
      pz      :     2.945373  p :     9.010237
      px      :     3.023898
      py      :     3.040965
      dz2     :     0.212476  d :     0.887446
      dxz     :     0.177790
      dyz     :     0.165703
      dx2y2   :     0.163596
      dxy     :     0.167880
 19 O s       :     3.869567  s :     3.869567
      pz      :     1.422755  p :     4.642865
      px      :     1.695729
      py      :     1.524381
      dz2     :     0.004215  d :     0.032033
      dxz     :     0.003840
      dyz     :     0.012987
      dx2y2   :     0.003971
      dxy     :     0.007020
 20 O s       :     3.823757  s :     3.823757
      pz      :     1.774761  p :     4.725014
      px      :     1.213103
      py      :     1.737150
      dz2     :     0.009855  d :     0.040363
      dxz     :     0.006065
      dyz     :     0.011958
      dx2y2   :     0.008444
      dxy     :     0.004041
 21 O s       :     3.870853  s :     3.870853
      pz      :     1.290093  p :     4.654537
      px      :     1.713068
      py      :     1.651376
      dz2     :     0.015044  d :     0.046411
      dxz     :     0.006542
      dyz     :     0.005126
      dx2y2   :     0.007183
      dxy     :     0.012516
 22 O s       :     3.809023  s :     3.809023
      pz      :     1.569912  p :     4.762581
      px      :     1.748542
      py      :     1.444127
      dz2     :     0.011244  d :     0.040434
      dxz     :     0.009644
      dyz     :     0.005759
      dx2y2   :     0.008286
      dxy     :     0.005501
 23 H s       :     0.568945  s :     0.568945
 24 N s       :     3.525151  s :     3.525151
      pz      :     1.401711  p :     4.223428
      px      :     1.436683
      py      :     1.385034
      dz2     :     0.008254  d :     0.030043
      dxz     :     0.004415
      dyz     :     0.004709
      dx2y2   :     0.007746
      dxy     :     0.004919
 25 H s       :     0.599172  s :     0.599172
 26 H s       :     0.571474  s :     0.571474
 27 H s       :     0.602788  s :     0.602788
 28 H s       :     0.620259  s :     0.620259
 29 N s       :     3.505040  s :     3.505040
      pz      :     1.365349  p :     4.238158
      px      :     1.435375
      py      :     1.437434
      dz2     :     0.008540  d :     0.029972
      dxz     :     0.003832
      dyz     :     0.005597
      dx2y2   :     0.006762
      dxy     :     0.005242
 30 H s       :     0.610206  s :     0.610206
 31 H s       :     0.602659  s :     0.602659
 32 H s       :     0.621738  s :     0.621738
 33 H s       :     0.601945  s :     0.601945
 34 N s       :     3.529953  s :     3.529953
      pz      :     1.422003  p :     4.259194
      px      :     1.421632
      py      :     1.415559
      dz2     :     0.006800  d :     0.029507
      dxz     :     0.003123
      dyz     :     0.007607
      dx2y2   :     0.008569
      dxy     :     0.003408
 35 H s       :     0.607734  s :     0.607734
 36 H s       :     0.533969  s :     0.533969
 37 H s       :     0.619622  s :     0.619622
 38 H s       :     0.592108  s :     0.592108
 39 N s       :     3.509326  s :     3.509326
      pz      :     1.426420  p :     4.257988
      px      :     1.425118
      py      :     1.406451
      dz2     :     0.008161  d :     0.031583
      dxz     :     0.005311
      dyz     :     0.005196
      dx2y2   :     0.005149
      dxy     :     0.007766
 40 H s       :     0.596676  s :     0.596676
 41 H s       :     0.599118  s :     0.599118
 42 H s       :     0.580185  s :     0.580185
 43 H s       :     0.523817  s :     0.523817


                     *******************************
                     * LOEWDIN POPULATION ANALYSIS *
                     *******************************

----------------------
LOEWDIN ATOMIC CHARGES
----------------------
   0 S :    1.877946
   1 O :   -0.798659
   2 O :   -0.848096
   3 O :   -0.824931
   4 O :   -0.673129
   5 H :    0.370533
   6 S :    1.865227
   7 O :   -0.905663
   8 O :   -0.873636
   9 O :   -0.666112
  10 O :   -0.713790
  11 H :    0.370673
  12 S :    1.878043
  13 O :   -0.829515
  14 O :   -0.781795
  15 O :   -0.830460
  16 O :   -0.672760
  17 H :    0.369811
  18 S :    1.869102
  19 O :   -0.769756
  20 O :   -0.921013
  21 O :   -0.791106
  22 O :   -0.768194
  23 H :    0.376910
  24 N :   -0.387887
  25 H :    0.328718
  26 H :    0.336479
  27 H :    0.342443
  28 H :    0.301451
  29 N :   -0.393097
  30 H :    0.336487
  31 H :    0.330942
  32 H :    0.297706
  33 H :    0.335433
  34 N :   -0.402306
  35 H :    0.332238
  36 H :    0.350243
  37 H :    0.298336
  38 H :    0.330237
  39 N :   -0.363096
  40 H :    0.324452
  41 H :    0.321688
  42 H :    0.333302
  43 H :    0.336601

-------------------------------
LOEWDIN REDUCED ORBITAL CHARGES
-------------------------------
  0 S s       :     4.614418  s :     4.614418
      pz      :     2.839615  p :     8.474258
      px      :     2.809860
      py      :     2.824783
      dz2     :     0.250235  d :     1.033379
      dxz     :     0.160091
      dyz     :     0.228510
      dx2y2   :     0.153909
      dxy     :     0.240634
  1 O s       :     3.666190  s :     3.666190
      pz      :     1.545618  p :     4.800255
      px      :     1.687159
      py      :     1.567479
      dz2     :     0.078523  d :     0.332215
      dxz     :     0.046965
      dyz     :     0.086937
      dx2y2   :     0.054787
      dxy     :     0.065003
  2 O s       :     3.662931  s :     3.662931
      pz      :     1.701514  p :     4.825801
      px      :     1.501472
      py      :     1.622815
      dz2     :     0.060366  d :     0.359364
      dxz     :     0.074363
      dyz     :     0.063459
      dx2y2   :     0.069758
      dxy     :     0.091417
  3 O s       :     3.632168  s :     3.632168
      pz      :     1.461347  p :     4.790890
      px      :     1.691266
      py      :     1.638277
      dz2     :     0.114353  d :     0.401874
      dxz     :     0.077475
      dyz     :     0.103205
      dx2y2   :     0.046646
      dxy     :     0.060195
  4 O s       :     3.612414  s :     3.612414
      pz      :     1.531785  p :     4.786788
      px      :     1.589054
      py      :     1.665949
      dz2     :     0.050827  d :     0.273928
      dxz     :     0.042426
      dyz     :     0.058042
      dx2y2   :     0.061884
      dxy     :     0.060749
  5 H s       :     0.629467  s :     0.629467
  6 S s       :     4.622174  s :     4.622174
      pz      :     2.844975  p :     8.485264
      px      :     2.811461
      py      :     2.828829
      dz2     :     0.237839  d :     1.027335
      dxz     :     0.172804
[...]
      dyz     :     0.073564
      dx2y2   :     0.018226
      dxy     :     0.030984
 10 O s       :     3.605288  s :     3.605288
      pz      :     1.571783  p :     4.798394
      px      :     1.573759
      py      :     1.652851
      dz2     :     0.066699  d :     0.310108
      dxz     :     0.051955
      dyz     :     0.063073
      dx2y2   :     0.063923
      dxy     :     0.064458
 11 H s       :     0.629327  s :     0.629327
 12 S s       :     4.616316  s :     4.616316
      pz      :     2.830294  p :     8.476523
      px      :     2.840376
      py      :     2.805852
      dz2     :     0.217022  d :     1.029119
      dxz     :     0.190624
      dyz     :     0.215533
      dx2y2   :     0.204927
      dxy     :     0.201011
 13 O s       :     3.660502  s :     3.660502
      pz      :     1.437412  p :     4.812848
      px      :     1.705826
      py      :     1.669610
      dz2     :     0.106953  d :     0.356166
      dxz     :     0.074850
      dyz     :     0.092063
      dx2y2   :     0.037658
      dxy     :     0.044642
 14 O s       :     3.650099  s :     3.650099
      pz      :     1.679348  p :     4.791561
      px      :     1.497403
      py      :     1.614810
      dz2     :     0.063273  d :     0.340135
      dxz     :     0.068943
      dyz     :     0.053598
      dx2y2   :     0.077152
      dxy     :     0.077168
 15 O s       :     3.654082  s :     3.654082
      pz      :     1.684535  p :     4.802263
      px      :     1.519352
      py      :     1.598375
      dz2     :     0.070024  d :     0.374115
      dxz     :     0.070565
      dyz     :     0.053993
      dx2y2   :     0.094719
      dxy     :     0.084813
 16 O s       :     3.612513  s :     3.612513
      pz      :     1.725892  p :     4.785138
      px      :     1.574911
      py      :     1.484335
      dz2     :     0.067240  d :     0.275108
      dxz     :     0.026379
      dyz     :     0.056102
      dx2y2   :     0.045750
      dxy     :     0.079639
 17 H s       :     0.630189  s :     0.630189
 18 S s       :     4.611765  s :     4.611765
      pz      :     2.841304  p :     8.482750
      px      :     2.829427
      py      :     2.812020
      dz2     :     0.252584  d :     1.036384
      dxz     :     0.194686
      dyz     :     0.197795
      dx2y2   :     0.194818
      dxy     :     0.196500
 19 O s       :     3.663224  s :     3.663224
      pz      :     1.529088  p :     4.797777
      px      :     1.680323
      py      :     1.588366
      dz2     :     0.074501  d :     0.308755
      dxz     :     0.066979
      dyz     :     0.066542
      dx2y2   :     0.052196
      dxy     :     0.048538
 20 O s       :     3.651860  s :     3.651860
      pz      :     1.714509  p :     4.820995
      px      :     1.425161
      py      :     1.681324
      dz2     :     0.080338  d :     0.448158
      dxz     :     0.087119
      dyz     :     0.060301
      dx2y2   :     0.102714
      dxy     :     0.117686
 21 O s       :     3.658287  s :     3.658287
      pz      :     1.464978  p :     4.801685
      px      :     1.686556
      py      :     1.650151
      dz2     :     0.090932  d :     0.331134
      dxz     :     0.067404
      dyz     :     0.073686
      dx2y2   :     0.041392
      dxy     :     0.057721
 22 O s       :     3.607381  s :     3.607381
      pz      :     1.564282  p :     4.796223
      px      :     1.736910
      py      :     1.495031
      dz2     :     0.077037  d :     0.364590
      dxz     :     0.048953
      dyz     :     0.089859
      dx2y2   :     0.073004
      dxy     :     0.075737
 23 H s       :     0.623090  s :     0.623090
 24 N s       :     3.238029  s :     3.238029
      pz      :     1.363663  p :     4.110665
      px      :     1.396305
      py      :     1.350698
      dz2     :     0.010223  d :     0.039192
      dxz     :     0.005902
      dyz     :     0.006414
      dx2y2   :     0.010145
      dxy     :     0.006508
 25 H s       :     0.671282  s :     0.671282
 26 H s       :     0.663521  s :     0.663521
 27 H s       :     0.657557  s :     0.657557
 28 H s       :     0.698549  s :     0.698549
 29 N s       :     3.237580  s :     3.237580
      pz      :     1.326199  p :     4.116483
      px      :     1.397153
      py      :     1.393131
      dz2     :     0.011539  d :     0.039034
      dxz     :     0.004898
      dyz     :     0.007323
      dx2y2   :     0.008693
      dxy     :     0.006580
 30 H s       :     0.663513  s :     0.663513
 31 H s       :     0.669058  s :     0.669058
 32 H s       :     0.702294  s :     0.702294
 33 H s       :     0.664567  s :     0.664567
 34 N s       :     3.239503  s :     3.239503
      pz      :     1.375333  p :     4.124246
      px      :     1.387198
      py      :     1.361714
      dz2     :     0.008626  d :     0.038557
      dxz     :     0.003915
      dyz     :     0.010253
      dx2y2   :     0.011297
      dxy     :     0.004465
 35 H s       :     0.667762  s :     0.667762
 36 H s       :     0.649757  s :     0.649757
 37 H s       :     0.701664  s :     0.701664
 38 H s       :     0.669763  s :     0.669763
 39 N s       :     3.230626  s :     3.230626
      pz      :     1.368383  p :     4.091182
      px      :     1.374792
      py      :     1.348008
      dz2     :     0.010725  d :     0.041288
      dxz     :     0.007005
      dyz     :     0.006695
      dx2y2   :     0.007016
      dxy     :     0.009849
 40 H s       :     0.675548  s :     0.675548
 41 H s       :     0.678312  s :     0.678312
 42 H s       :     0.666698  s :     0.666698
 43 H s       :     0.663399  s :     0.663399


                      *****************************
                      * MAYER POPULATION ANALYSIS *
                      *****************************

  NA   - Mulliken gross atomic population
  ZA   - Total nuclear charge
  QA   - Mulliken gross atomic charge
  VA   - Mayer's total valence
  BVA  - Mayer's bonded valence
  FA   - Mayer's free valence

  ATOM       NA         ZA         QA         VA         BVA        FA
  0 S     14.7619    16.0000     1.2381     5.5989     5.5989     0.0000
  1 O      8.6062     8.0000    -0.6062     1.8460     1.8460     0.0000
  2 O      8.6672     8.0000    -0.6672     1.7991     1.7991    -0.0000
  3 O      8.6117     8.0000    -0.6117     1.8208     1.8208     0.0000
  4 O      8.6109     8.0000    -0.6109     1.9394     1.9394     0.0000
  5 H      0.5391     1.0000     0.4609     0.7726     0.7726    -0.0000
  6 S     14.8497    16.0000     1.1503     5.7702     5.7702     0.0000
  7 O      8.7179     8.0000    -0.7179     1.7687     1.7687     0.0000
  8 O      8.6508     8.0000    -0.6508     1.7686     1.7686     0.0000
  9 O      8.4363     8.0000    -0.4363     2.0603     2.0603    -0.0000
 10 O      8.6319     8.0000    -0.6319     1.8428     1.8428     0.0000
 11 H      0.5520     1.0000     0.4480     0.8149     0.8149     0.0000
 12 S     14.7445    16.0000     1.2555     5.5894     5.5894     0.0000
 13 O      8.6143     8.0000    -0.6143     1.7787     1.7787    -0.0000
 14 O      8.6285     8.0000    -0.6285     1.7961     1.7961     0.0000
 15 O      8.6510     8.0000    -0.6510     1.8403     1.8403    -0.0000
 16 O      8.6107     8.0000    -0.6107     1.9331     1.9331     0.0000
 17 H      0.5393     1.0000     0.4607     0.7738     0.7738    -0.0000
 18 S     15.0369    16.0000     0.9631     5.7217     5.7217     0.0000
 19 O      8.5445     8.0000    -0.5445     1.8740     1.8740     0.0000
 20 O      8.5891     8.0000    -0.5891     1.6417     1.6417    -0.0000
 21 O      8.5718     8.0000    -0.5718     1.8676     1.8676    -0.0000
 22 O      8.6120     8.0000    -0.6120     1.7527     1.7527    -0.0000
 23 H      0.5689     1.0000     0.4311     0.8414     0.8414    -0.0000
 24 N      7.7786     7.0000    -0.7786     3.0526     3.0526     0.0000
 25 H      0.5992     1.0000     0.4008     0.8598     0.8598     0.0000
 26 H      0.5715     1.0000     0.4285     0.8247     0.8247     0.0000
 27 H      0.6028     1.0000     0.3972     0.8687     0.8687     0.0000
 28 H      0.6203     1.0000     0.3797     0.8389     0.8389     0.0000
 29 N      7.7732     7.0000    -0.7732     3.0070     3.0070    -0.0000
 30 H      0.6102     1.0000     0.3898     0.8720     0.8720    -0.0000
 31 H      0.6027     1.0000     0.3973     0.8640     0.8640     0.0000
 32 H      0.6217     1.0000     0.3783     0.8391     0.8391    -0.0000
 33 H      0.6019     1.0000     0.3981     0.8667     0.8667    -0.0000
 34 N      7.8187     7.0000    -0.8187     3.0385     3.0385    -0.0000
 35 H      0.6077     1.0000     0.3923     0.8721     0.8721    -0.0000
 36 H      0.5340     1.0000     0.4660     0.7747     0.7747     0.0000
 37 H      0.6196     1.0000     0.3804     0.8383     0.8383    -0.0000
 38 H      0.5921     1.0000     0.4079     0.8460     0.8460    -0.0000
 39 N      7.7989     7.0000    -0.7989     3.1484     3.1484    -0.0000
 40 H      0.5967     1.0000     0.4033     0.8428     0.8428     0.0000
 41 H      0.5991     1.0000     0.4009     0.8432     0.8432     0.0000
 42 H      0.5802     1.0000     0.4198     0.8372     0.8372     0.0000
 43 H      0.5238     1.0000     0.4762     0.7297     0.7297     0.0000

  Mayer bond orders larger than 0.100000
B(  0-S ,  1-O ) :   1.6110 B(  0-S ,  2-O ) :   1.3628 B(  0-S ,  3-O ) :   1.5272 
B(  0-S ,  4-O ) :   1.0893 B(  2-O , 31-H ) :   0.1407 B(  2-O , 35-H ) :   0.1486 
B(  4-O ,  5-H ) :   0.7241 B(  6-S ,  7-O ) :   1.3203 B(  6-S ,  8-O ) :   1.4820 
B(  6-S ,  9-O ) :   1.9203 B(  6-S , 10-O ) :   1.0320 B(  7-O , 27-H ) :   0.1981 
B(  7-O , 42-H ) :   0.1152 B( 10-O , 11-H ) :   0.6759 B( 12-S , 13-O ) :   1.5256 
B( 12-S , 14-O ) :   1.4878 B( 12-S , 15-O ) :   1.4923 B( 12-S , 16-O ) :   1.0786 
B( 14-O , 23-H ) :   0.1582 B( 15-O , 30-H ) :   0.1310 B( 16-O , 17-H ) :   0.7266 
B( 18-S , 19-O ) :   1.6414 B( 18-S , 20-O ) :   1.4202 B( 18-S , 21-O ) :   1.5748 
B( 18-S , 22-O ) :   1.0392 B( 19-O , 33-H ) :   0.1152 B( 21-O , 38-H ) :   0.1009 
B( 22-O , 23-H ) :   0.6358 B( 24-N , 25-H ) :   0.7664 B( 24-N , 26-H ) :   0.7423 
B( 24-N , 27-H ) :   0.6654 B( 24-N , 28-H ) :   0.8332 B( 29-N , 30-H ) :   0.7223 
B( 29-N , 31-H ) :   0.7296 B( 29-N , 32-H ) :   0.8383 B( 29-N , 33-H ) :   0.7275 
B( 34-N , 35-H ) :   0.7152 B( 34-N , 36-H ) :   0.6993 B( 34-N , 37-H ) :   0.8356 
B( 34-N , 38-H ) :   0.7393 B( 39-N , 40-H ) :   0.7660 B( 39-N , 41-H ) :   0.7918 
B( 39-N , 42-H ) :   0.7083 B( 39-N , 43-H ) :   0.8223 

-------
TIMINGS
-------

Total SCF time: 0 days 0 hours 2 min 56 sec 

Total time                  ....     176.985 sec
Sum of individual times     ....     175.412 sec  ( 99.1%)

Fock matrix formation       ....     165.112 sec  ( 93.3%)
  Split-RI-J                ....      47.051 sec  ( 28.5% of F)
  XC integration            ....     118.012 sec  ( 71.5% of F)
    Basis function eval.    ....      24.137 sec  ( 20.5% of XC)
    Density eval.           ....      55.816 sec  ( 47.3% of XC)
    XC-Functional eval.     ....       3.631 sec  (  3.1% of XC)
    XC-Potential eval.      ....      30.971 sec  ( 26.2% of XC)
Diagonalization             ....       2.620 sec  (  1.5%)
Density matrix formation    ....       0.144 sec  (  0.1%)
Population analysis         ....       0.200 sec  (  0.1%)
Initial guess               ....       0.322 sec  (  0.2%)
Orbital Transformation      ....       0.000 sec  (  0.0%)
Orbital Orthonormalization  ....       0.000 sec  (  0.0%)
DIIS solution               ....       1.049 sec  (  0.6%)
SOSCF solution              ....       1.060 sec  (  0.6%)
Grid generation             ....       4.905 sec  (  2.8%)

Maximum memory used throughout the entire SCF-calculation: 305.7 MB


-------------------------------------------------------------------------------
                          DFT DISPERSION CORRECTION                            
                                                                               
                              DFTD3 V3.1  Rev 1                                
                          USING Becke-Johnson damping                          
-------------------------------------------------------------------------------
The B97-3c composite method is recognized
Using three-body term ABC
Active option DFTDOPT                   ...         4   

molecular C6(AA) [au] = 22563.290641 


            DFT-D V3
 parameters
 s6 scaling factor         :     1.0000 
 a1 scaling factor         :     0.3700 
 s8 scaling factor         :     1.5000 
 a2 scaling factor         :     4.1000 
 Damping factor alpha9(ATM):    16.0000 
 ad hoc parameters k1-k3   :    16.0000     1.3333    -4.0000 

 Edisp/kcal,au: -86.229769471547  -0.137415869939 
 E6   /kcal   : -45.716767768 
 E8   /kcal   : -41.432844497 
 E6(ABC)      :   0.919842794 
 % E8         :  48.049350881 
 % E6(ABC)    :  -1.066734609 

-------------------------   ----------------
Dispersion correction           -0.137415870
-------------------------   ----------------

------------------   -----------------
SRB correction            -0.142555905
------------------   -----------------

-------------------------   --------------------
FINAL SINGLE POINT ENERGY     -3026.639979062700
-------------------------   --------------------

------------------------------------------------------------------------------
                         ORCA SCF GRADIENT CALCULATION
------------------------------------------------------------------------------

Gradient of the Kohn-Sham DFT energy:
Kohn-Sham wavefunction type      ... RKS
Hartree-Fock exchange scaling    ...    0.000
Number of operators              ...    1
Number of atoms                  ...   44
Basis set dimensions             ...  608
Integral neglect threshold       ... 2.5e-11
Integral primitive cutoff        ... 2.5e-12
SHARK Integral package           ... ON

Nuc. rep. gradient       (SHARK) ... done (  0.0 sec)
HCore & Overlap gradient (SHARK) ... done (  4.6 sec)
RI-J gradient            (SHARK) ... done ( 12.0 sec)
Exchange-correlation gradient    ... done
Dispersion correction            ... done
SRB correction                   ... done

------------------
CARTESIAN GRADIENT
------------------

   1   S   :   -0.015391370   -0.004214290    0.003520795
   2   O   :   -0.009621026    0.026748260    0.033988288
   3   O   :    0.034356130   -0.027478372    0.005660806
   4   O   :   -0.006978356    0.010561349   -0.037603022
   5   O   :   -0.017452863   -0.012531066   -0.008836472
   6   H   :    0.000527951   -0.000261756    0.004191924
   7   S   :   -0.009265317   -0.016135742    0.006375838
   8   O   :   -0.001864945    0.031217626    0.023973489
   9   O   :    0.027751493   -0.025454094    0.005374287
  10   O   :   -0.007112480    0.015010805   -0.048044188
  11   O   :   -0.021939063   -0.007130197   -0.001866156
  12   H   :    0.002247304   -0.000536956    0.002612864
  13   S   :    0.005716632    0.014730772   -0.002314071
  14   O   :   -0.001799196    0.018485546   -0.035622453
  15   O   :    0.042595124   -0.021057732    0.012501199
  16   O   :   -0.035957261   -0.014847943    0.019349436
  17   O   :   -0.008048207    0.014383344    0.015438681
  18   H   :    0.003984706    0.001003045   -0.001714704
  19   S   :    0.001636156    0.017295580    0.017048384
  20   O   :    0.015515932   -0.027632962    0.034097880
  21   O   :   -0.032867842    0.008069608    0.001604651
  22   O   :    0.015048316   -0.010580025   -0.044740684
  23   O   :    0.015333590    0.010833652   -0.004665059
  24   H   :   -0.001492779    0.000807608    0.003600048
  25   N   :    0.002372195    0.003394354   -0.000278176
  26   H   :    0.000384561    0.000751312   -0.003949339
  27   H   :    0.001290570    0.001906882    0.001113793
  28   H   :   -0.002581671    0.002450141   -0.000145983
  29   H   :    0.002132877    0.001265042   -0.001178671
  30   N   :    0.000023882    0.000503063    0.003494505
  31   H   :   -0.002080176    0.000675330    0.002994365
  32   H   :    0.000696303   -0.004085082    0.000797863
  33   H   :   -0.000389871   -0.000886844    0.002574821
  34   H   :    0.002640496   -0.004295643    0.000314712
  35   N   :   -0.001354946   -0.003034618   -0.001398806
  36   H   :    0.000092786   -0.004283757    0.001867518
  37   H   :    0.000997630    0.002106571   -0.003674840
  38   H   :   -0.000132659   -0.002931407   -0.000838877
  39   H   :    0.003773593   -0.000046653   -0.002965037
  40   N   :   -0.007808758    0.002731881   -0.001223352
  41   H   :    0.000941059   -0.000381256    0.002451787
  42   H   :    0.000462545   -0.001024182   -0.000824602
  43   H   :    0.002558915    0.002559459   -0.002448101
  44   H   :    0.001058039    0.001339350   -0.000615344

Difference to translation invariance:
           :   -0.0000000000   -0.0000000001   -0.0000000001

Difference to rotation invariance:
           :    0.0004723865    0.0004488575   -0.0002740561

Norm of the cartesian gradient     ...    0.1628226979
RMS gradient                       ...    0.0141718968
MAX gradient                       ...    0.0480441878

-------
TIMINGS
-------

Total SCF gradient time            ...       88.615 sec

One electron gradient       ....       4.594 sec  (  5.2%)
RI-J Coulomb gradient       ....      11.978 sec  ( 13.5%)
XC gradient                 ....      71.551 sec  ( 80.7%)

Maximum memory used throughout the entire SCFGRAD-calculation: 279.4 MB

                            ***************************************
                            *     ORCA property calculations      *
                            ***************************************

                                    ---------------------
                                    Active property flags
                                    ---------------------
   (+) Dipole Moment


------------------------------------------------------------------------------
                       ORCA ELECTRIC PROPERTIES CALCULATION
------------------------------------------------------------------------------

Dipole Moment Calculation                       ... on
Quadrupole Moment Calculation                   ... off
Polarizability Calculation                      ... off
GBWName                                         ... 4sa4am-44_10_163.gbw
Electron density                                ... 4sa4am-44_10_163.scfp
The origin for moment calculation is the CENTER OF MASS  = ( 0.083188, -0.095981  0.129713)

-------------
DIPOLE MOMENT
-------------
                                X             Y             Z
Electronic contribution:      1.40739      -1.36088       0.80420
Nuclear contribution   :     -1.78402       2.03803      -2.95584
                        -----------------------------------------
Total Dipole Moment    :     -0.37663       0.67715      -2.15164
                        -----------------------------------------
Magnitude (a.u.)       :      2.28690
Magnitude (Debye)      :      5.81285



--------------------
Rotational spectrum 
--------------------
 
Rotational constants in cm-1:     0.006690     0.004972     0.004311 
Rotational constants in MHz :   200.546716   149.048587   129.242664 

 Dipole components along the rotational axes: 
x,y,z [a.u.] :    -1.678043     1.531381     0.262631 
x,y,z [Debye]:    -4.265246     3.892461     0.667555 

 

Timings for individual modules:

Sum of individual times         ...      267.175 sec (=   4.453 min)
GTO integral calculation        ...        1.449 sec (=   0.024 min)   0.5 %
SCF iterations                  ...      177.053 sec (=   2.951 min)  66.3 %
SCF Gradient evaluation         ...       88.672 sec (=   1.478 min)  33.2 %
                             ****ORCA TERMINATED NORMALLY****
TOTAL RUN TIME: 0 days 0 hours 4 minutes 27 seconds 756 msec
