44
Properties=species:S:1:pos:R:3 energy:=T -113.447266155708=T gnorm:=T 0.000505080014=T xtb:=T 6.4.0=T (d4b70c2)=T pbc="F F F"
S        2.46324492      -3.21927037      -0.01563670
O        1.75683681      -3.20632859       1.25867289
O        1.58384730      -3.45123505      -1.15417633
O        3.33281896      -2.07011405      -0.17973237
O        3.47833940      -4.46894276       0.03182573
H        2.96255810      -5.28080414       0.08913116
S       -2.45924400       3.02144191       1.11992444
O       -1.74236033       2.56964311       2.30519648
O       -1.58910811       3.63477937       0.12490596
O       -3.33130511       1.99844082       0.57527418
O       -3.47284902       4.17539784       1.60496613
H       -2.95624306       4.91853147       1.93555066
S        1.15807934       1.87827539      -0.38720495
O        0.71597844       1.80817252      -1.77624747
O        0.19488486       1.20993610       0.51242835
O        2.50565106       1.39691764      -0.19298523
O        1.14311662       3.40098885       0.04735420
H        0.19835413       3.66120557       0.15603945
S       -1.16369446      -1.62935199      -1.00391935
O       -0.73283466      -1.08219590      -2.28643032
O       -0.19193714      -1.31274727       0.06340324
O       -2.50875684      -1.24641941      -0.64396474
O       -1.14814058      -3.20829836      -1.12352048
H       -0.20289199      -3.48876093      -1.11956978
N        1.82666024      -0.74678635      -1.93859742
H        2.79476154      -0.63645753      -1.65664378
H        1.45759529       0.11510806      -2.33872307
H        1.71291935      -1.53809517      -2.56008353
H        1.27217484      -0.95096100      -1.10325455
N       -1.84099262       1.36948021      -1.54560445
H       -1.47640037       0.69968560      -2.22224300
H       -1.73211777       2.32719301      -1.85627423
H       -2.80664637       1.16633734      -1.31054766
H       -1.27898298       1.27357052      -0.69595851
N        1.96019235      -0.55192326       1.69614657
H        1.20505183       0.03326555       1.30713926
H        2.14136501      -0.31597927       2.65913344
H        1.71648534      -1.55649271       1.59116558
H        2.78714093      -0.38644990       1.12736769
N       -1.94464118      -0.07242117       1.79863074
H       -2.77637840      -0.03198190       1.21435852
H       -1.19342229      -0.48535762       1.22490438
H       -1.70075401       0.90678114       2.04620764
H       -2.11835539      -0.62777732       2.62159121
