44
Properties=species:S:1:pos:R:3 energy:=T -113.449570359540=T gnorm:=T 0.000675287624=T xtb:=T 6.4.0=T (d4b70c2)=T pbc="F F F"
S       -1.01796582      -2.04458868      -2.81286026
O       -0.42777363      -1.57246460      -4.04097233
O       -1.16422278      -3.48448369      -2.71577403
O       -0.42092257      -1.46594233      -1.62214469
O       -2.53678822      -1.42547036      -2.75779315
H       -2.99461385      -1.70754619      -3.55852356
S        1.76852959      -1.59570274       1.01365508
O        2.18074084      -1.61502919      -0.38969793
O        0.37684329      -1.13174624       1.17326370
O        2.00848976      -2.83461005       1.69758079
O        2.68228579      -0.49568934       1.73480116
H        2.70982261       0.32191024       1.18157352
S       -2.20038099       2.28801956       2.35825349
O       -3.18779403       1.30050364       1.95434865
O       -1.66174753       2.05121674       3.68804169
O       -1.16567844       2.49332144       1.35796326
O       -2.96146181       3.70813015       2.41904057
H       -3.61306941       3.67334199       3.12823414
S        1.55915021       2.29137811      -0.48370914
O        0.47673035       1.32840191      -0.75797885
O        2.25178966       1.95955919       0.76322852
O        2.42455900       2.48157909      -1.61112885
O        0.81550024       3.67996019      -0.23341456
H        0.05081768       3.51710259       0.35343779
N        0.30213874      -3.64773259      -0.38549834
H        1.09114085      -3.07520889      -0.70810763
H        0.64964485      -4.44117804       0.13404425
H       -0.21565026      -3.02418862       0.22864708
H       -0.27994006      -3.88975439      -1.19685806
N       -1.87257119       0.24743380      -0.18226612
H       -2.52129592       0.48596855       0.57945921
H       -2.31748626      -0.23283305      -0.95521587
H       -1.43609070       1.10959706      -0.50458351
H       -1.10374537      -0.32354502       0.17206923
N        0.71783801       1.06223150       2.84901286
H       -0.09582157       1.47942808       3.32527542
H        1.09519096       1.71851916       2.15802136
H        1.45037587       0.78899609       3.48741441
H        0.41695362       0.23807877       2.31713045
N        1.64608972      -0.05039414      -2.66347386
H        2.28661735       0.65619636      -3.00253659
H        1.07048159      -0.46271822      -3.39329096
H        2.13447958      -0.77230442      -2.14014236
H        1.02881023       0.41225656      -1.95852602
