44
Properties=species:S:1:pos:R:3 energy:=T -113.452991279242=T gnorm:=T 0.000829918682=T xtb:=T 6.4.0=T (d4b70c2)=T pbc="F F F"
S        3.29838717      -1.10844758      -1.10949686
O        2.82335970      -0.13140307      -0.13320678
O        2.73325671      -2.43287951      -0.90236199
O        3.19856605      -0.64180776      -2.47621759
O        4.86831297      -1.32371469      -0.80190526
H        5.32937613      -0.49131668      -0.95265649
S       -2.16745877       3.01294474      -0.35387360
O       -2.95745718       3.05707040       0.86367187
O       -0.97035833       3.82715211      -0.31443557
O       -1.91298417       1.64706682      -0.79552407
O       -3.09735863       3.61572298      -1.52996401
H       -3.26988578       4.54263403      -1.33021789
S       -0.15545311       0.15204814       3.43268372
O       -0.11247468       0.42195777       1.99130674
O       -1.49731583       0.28952502       3.96915580
O        0.52353363      -1.07492031       3.77130728
O        0.70988370       1.33497308       4.11519908
H        0.11701471       1.91664935       4.60364931
S       -1.21931942      -1.42960667      -1.38237285
O       -1.52161604      -1.51569658       0.04443327
O        0.00064733      -0.62140275      -1.60557121
O       -1.15830038      -2.69526141      -2.06087443
O       -2.40234120      -0.62422873      -2.06627762
H       -2.36901995       0.30779358      -1.74446950
N        1.27616740      -2.28785204      -3.20632402
H        0.84402460      -1.49407197      -2.68087112
H        0.52866342      -2.89657982      -3.51377059
H        1.84780990      -1.92201044      -3.95338128
H        1.87011208      -2.74742017      -2.51203537
N        0.80287631       1.69725141      -0.27390925
H        0.61068621       1.40578373       0.68744961
H        1.80164535       1.69026826      -0.43726526
H        0.36130360       0.99680992      -0.87829872
H        0.36533759       2.60848672      -0.43322098
N        1.04514625      -1.86066007       1.19657470
H        1.46692445      -2.73224646       0.90450291
H        1.61683449      -1.09370923       0.83064952
H        0.10256173      -1.76317257       0.80670397
H        0.98777399      -1.76966619       2.21704765
N       -2.87855064       0.42232447       1.60443463
H       -3.78309179      -0.02020446       1.55924191
H       -2.47450078       0.35235708       2.54881935
H       -2.23747184      -0.04010704       0.95350895
H       -2.94524694       1.41956660       1.34816204
