44
Properties=species:S:1:pos:R:3 energy:=T -113.459692523650=T gnorm:=T 0.000936748747=T xtb:=T 6.4.0=T (d4b70c2)=T pbc="F F F"
S        2.16253238      -1.93365696       1.27072620
O        1.51572544      -2.84807025       2.18219359
O        2.92462530      -2.55772909       0.21169813
O        1.28180141      -0.88300207       0.78894015
O        3.23521967      -1.06681819       2.16443863
H        3.88155609      -1.68845601       2.51829235
S       -1.63191058       1.69848826       2.11791810
O       -0.71945625       2.49501610       2.90401585
O       -2.66686077       2.44332558       1.43525714
O       -0.96178014       0.74147216       1.25360597
O       -2.39988738       0.69621410       3.16970966
H       -2.89484676       1.25037062       3.78396196
S        1.55340352       2.05293477      -1.84459464
O        2.37782526       2.90642228      -1.01766152
O        2.25887623       1.33411664      -2.87933384
O        0.65624271       1.21232770      -1.06981890
O        0.48544871       3.04054434      -2.60928542
H        0.99803534       3.65650291      -3.14524430
S       -2.08386784      -1.81770484      -1.54399923
O       -2.63417087      -2.79418521      -0.62995735
O       -3.05630897      -0.98075581      -2.20653021
O       -0.97644844      -1.07035571      -0.97217457
O       -1.31985337      -2.66781960      -2.72488913
H       -1.98360707      -3.21719652      -3.15734028
N        1.52020860      -1.28127590      -1.93726223
H        1.04141742      -0.64303756      -1.28791105
H        0.80614276      -1.85172040      -2.37639133
H        2.01281531      -0.69617297      -2.60673055
H        2.15890931      -1.84950756      -1.37744778
N       -2.01061126       1.49865871      -1.19042322
H       -2.43579025       1.97300716      -0.39128853
H       -1.37049373       0.78876793      -0.81025940
H       -2.69663211       0.99904922      -1.74988751
H       -1.45234265       2.13757584      -1.74572551
N       -1.15061536      -1.90662071       1.65744396
H       -1.77882456      -2.40339773       1.02266547
H       -1.66486197      -1.30757391       2.29388512
H       -0.52042139      -2.53769706       2.14557454
H       -0.56084263      -1.29606785       1.07636132
N        1.64057906       1.68886174       1.47024627
H        0.88554974       1.15260411       1.02245996
H        2.05554173       2.27826832       0.74582472
H        1.20732511       2.23604464       2.20908633
H        2.31065329       1.01824880       1.82985107
