44
Properties=species:S:1:pos:R:3 energy:=T -113.449570592187=T gnorm:=T 0.000882819036=T xtb:=T 6.4.0=T (d4b70c2)=T pbc="F F F"
S        1.36585865      -0.35395158       2.43824912
O        0.91729494       0.40861759       1.25844137
O        0.78315448      -1.69738761       2.44681116
O        2.78969169      -0.32357789       2.60372764
O        0.73892601       0.41929471       3.68499136
H       -0.19093742       0.63578884       3.47596425
S        0.23311099      -2.36008937      -1.04407114
O        1.60149781      -1.87333876      -1.21646365
O       -0.72257223      -1.25540370      -0.83146696
O       -0.19335791      -3.25184341      -2.08491407
O        0.22668067      -3.21168672       0.31244634
H        0.69818938      -2.70729738       1.01845865
S        1.59849904       1.90964967      -2.63332694
O        2.94199861       2.28534999      -2.26995698
O        1.40304141       1.60599024      -4.03832399
O        1.02241398       0.90002184      -1.76331756
O        0.64964265       3.20889331      -2.30919655
H        1.01083047       3.96036299      -2.79382911
S       -3.17127809       0.90691516       2.17751206
O       -3.45979208       1.65014808       0.96172622
O       -3.90955551      -0.34205401       2.27553185
O       -1.74641384       0.74089267       2.41316896
O       -3.65923334       1.82473440       3.41007213
H       -4.61965160       1.89685883       3.37326013
N        0.41946784      -0.91940081      -3.53548844
H        0.18837795      -1.68298756      -4.15518968
H        0.70848221      -0.05586259      -4.01147756
H       -0.36233198      -0.71919128      -2.91630963
H        1.17035228      -1.20775191      -2.89810904
N        3.11443349       0.25579589      -0.17222280
H        3.79012010       0.11798362       0.56840998
H        2.95911265      -0.60171818      -0.69657657
H        2.19561555       0.45090092       0.28554127
H        3.34681802       1.02192149      -0.79912195
N       -0.97440684       1.62100899      -0.14322759
H       -1.97109375       1.73660518       0.08350521
H       -0.63470885       2.29262095      -0.82124256
H       -0.44517493       1.69324075       0.72399489
H       -0.79670212       0.67595724      -0.48649038
N       -1.81997166      -1.94324237       1.63009689
H       -2.68434281      -1.48633800       1.95723382
H       -1.03139215      -1.67088129       2.22551315
H       -1.89104327      -2.94993036       1.60682065
H       -1.58965049      -1.60561858       0.68884609
