
                                 *****************
                                 * O   R   C   A *
                                 *****************

                                            #,                                       
                                            ###                                      
                                            ####                                     
                                            #####                                    
                                            ######                                   
                                           ########,                                 
                                     ,,################,,,,,                         
                               ,,#################################,,                 
                          ,,##########################################,,             
                       ,#########################################, ''#####,          
                    ,#############################################,,   '####,        
                  ,##################################################,,,,####,       
                ,###########''''           ''''###############################       
              ,#####''   ,,,,##########,,,,          '''####'''          '####       
            ,##' ,,,,###########################,,,                        '##       
           ' ,,###''''                  '''############,,,                           
         ,,##''                                '''############,,,,        ,,,,,,###''
      ,#''                                            '''#######################'''  
     '                                                          ''''####''''         
             ,#######,   #######,   ,#######,      ##                                
            ,#'     '#,  ##    ##  ,#'     '#,    #''#        ######   ,####,        
            ##       ##  ##   ,#'  ##            #'  '#       #        #'  '#        
            ##       ##  #######   ##           ,######,      #####,   #    #        
            '#,     ,#'  ##    ##  '#,     ,#' ,#      #,         ##   #,  ,#        
             '#######'   ##     ##  '#######'  #'      '#     #####' # '####'        



                  #######################################################
                  #                        -***-                        #
                  #          Department of theory and spectroscopy      #
                  #    Directorship and core code : Frank Neese         #
                  #        Max Planck Institute fuer Kohlenforschung    #
                  #                Kaiser Wilhelm Platz 1               #
                  #                 D-45470 Muelheim/Ruhr               #
                  #                      Germany                        #
                  #                                                     #
                  #                  All rights reserved                #
                  #                        -***-                        #
                  #######################################################


                         Program Version 5.0.3 -  RELEASE  -


 With contributions from (in alphabetic order):
   Daniel Aravena         : Magnetic Suceptibility
   Michael Atanasov       : Ab Initio Ligand Field Theory (pilot matlab implementation)
   Alexander A. Auer      : GIAO ZORA, VPT2 properties, NMR spectrum
   Ute Becker             : Parallelization
   Giovanni Bistoni       : ED, misc. LED, open-shell LED, HFLD
   Martin Brehm           : Molecular dynamics
   Dmytro Bykov           : SCF Hessian
   Vijay G. Chilkuri      : MRCI spin determinant printing, contributions to CSF-ICE
   Dipayan Datta          : RHF DLPNO-CCSD density
   Achintya Kumar Dutta   : EOM-CC, STEOM-CC
   Dmitry Ganyushin       : Spin-Orbit,Spin-Spin,Magnetic field MRCI
   Miquel Garcia          : C-PCM and meta-GGA Hessian, CC/C-PCM, Gaussian charge scheme
   Yang Guo               : DLPNO-NEVPT2, F12-NEVPT2, CIM, IAO-localization
   Andreas Hansen         : Spin unrestricted coupled pair/coupled cluster methods
   Benjamin Helmich-Paris : MC-RPA, TRAH-SCF, COSX integrals
   Lee Huntington         : MR-EOM, pCC
   Robert Izsak           : Overlap fitted RIJCOSX, COSX-SCS-MP3, EOM
   Marcus Kettner         : VPT2
   Christian Kollmar      : KDIIS, OOCD, Brueckner-CCSD(T), CCSD density, CASPT2, CASPT2-K
   Simone Kossmann        : Meta GGA functionals, TD-DFT gradient, OOMP2, MP2 Hessian
   Martin Krupicka        : Initial AUTO-CI
   Lucas Lang             : DCDCAS
   Marvin Lechner         : AUTO-CI (C++ implementation), FIC-MRCC
   Dagmar Lenk            : GEPOL surface, SMD
   Dimitrios Liakos       : Extrapolation schemes; Compound Job, initial MDCI parallelization
   Dimitrios Manganas     : Further ROCIS development; embedding schemes
   Dimitrios Pantazis     : SARC Basis sets
   Anastasios Papadopoulos: AUTO-CI, single reference methods and gradients
   Taras Petrenko         : DFT Hessian,TD-DFT gradient, ASA, ECA, R-Raman, ABS, FL, XAS/XES, NRVS
   Peter Pinski           : DLPNO-MP2, DLPNO-MP2 Gradient
   Christoph Reimann      : Effective Core Potentials
   Marius Retegan         : Local ZFS, SOC
   Christoph Riplinger    : Optimizer, TS searches, QM/MM, DLPNO-CCSD(T), (RO)-DLPNO pert. Triples
   Tobias Risthaus        : Range-separated hybrids, TD-DFT gradient, RPA, STAB
   Michael Roemelt        : Original ROCIS implementation
   Masaaki Saitow         : Open-shell DLPNO-CCSD energy and density
   Barbara Sandhoefer     : DKH picture change effects
   Avijit Sen             : IP-ROCIS
   Kantharuban Sivalingam : CASSCF convergence, NEVPT2, FIC-MRCI
   Bernardo de Souza      : ESD, SOC TD-DFT
   Georgi Stoychev        : AutoAux, RI-MP2 NMR, DLPNO-MP2 response
   Willem Van den Heuvel  : Paramagnetic NMR
   Boris Wezisla          : Elementary symmetry handling
   Frank Wennmohs         : Technical directorship


 We gratefully acknowledge several colleagues who have allowed us to
 interface, adapt or use parts of their codes:
   Stefan Grimme, W. Hujo, H. Kruse, P. Pracht,  : VdW corrections, initial TS optimization,
                  C. Bannwarth, S. Ehlert          DFT functionals, gCP, sTDA/sTD-DF
   Ed Valeev, F. Pavosevic, A. Kumar             : LibInt (2-el integral package), F12 methods
   Garnet Chan, S. Sharma, J. Yang, R. Olivares  : DMRG
   Ulf Ekstrom                                   : XCFun DFT Library
   Mihaly Kallay                                 : mrcc  (arbitrary order and MRCC methods)
   Jiri Pittner, Ondrej Demel                    : Mk-CCSD
   Frank Weinhold                                : gennbo (NPA and NBO analysis)
   Christopher J. Cramer and Donald G. Truhlar   : smd solvation model
   Lars Goerigk                                  : TD-DFT with DH, B97 family of functionals
   V. Asgeirsson, H. Jonsson                     : NEB implementation
   FAccTs GmbH                                   : IRC, NEB, NEB-TS, DLPNO-Multilevel, CI-OPT
                                                   MM, QMMM, 2- and 3-layer-ONIOM, Crystal-QMMM,
                                                   LR-CPCM, SF, NACMEs, symmetry and pop. for TD-DFT,
                                                   nearIR, NL-DFT gradient (VV10), updates on ESD,
                                                   ML-optimized integration grids
   S Lehtola, MJT Oliveira, MAL Marques          : LibXC Library
   Liviu Ungur et al                             : ANISO software


 Your calculation uses the libint2 library for the computation of 2-el integrals
 For citations please refer to: http://libint.valeyev.net

 Your ORCA version has been built with support for libXC version: 5.1.0
 For citations please refer to: https://tddft.org/programs/libxc/

 This ORCA versions uses:
   CBLAS   interface :  Fast vector & matrix operations
   LAPACKE interface :  Fast linear algebra routines
   SCALAPACK package :  Parallel linear algebra routines
   Shared memory     :  Shared parallel matrices
   BLAS/LAPACK       :  OpenBLAS 0.3.15  USE64BITINT DYNAMIC_ARCH NO_AFFINITY Prescott SINGLE_THREADED
        Core in use  :  Prescott
   Copyright (c) 2011-2014, The OpenBLAS Project




***************************************
The coordinates will be read from file: 4sa4am-44_10_0.xyz
***************************************


Your calculation utilizes the atom-pairwise dispersion correction
with the Becke-Johnson damping scheme (D3BJ)
Cite in your paper:
S.Grimme, S.Ehrlich, L.Goerigk, J Comput Chem, (2011), 32, 1456–1465 
S.Grimme, J.Antony, S.Ehrlich and H.Krieg, J.Chem.Phys., 132, (2010), 154104 
   

Your calculation employs the composite approach B97-3c by Grimme and coworkers.
For the correct reference, please check the publication list of the Grimme group:
http://www.thch.uni-bonn.de/tc/index.php?section=publikationen&subsection=grimme#2017
   

XCFun DFT library Copyright 2009-2010 Ulf Ekstrom and contributors.
See http://admol.org/xcfun for more information.
This is free software; see the source code for copying conditions.
There is ABSOLUTELY NO WARRANTY; not even for MERCHANTABILITY or FITNESS FOR A PARTICULAR PURPOSE.
For details see the documentation.
Scientific users of this library should cite U. Ekstrom, L. Visscher, R. Bast, A. J. Thorvaldsen and K. Ruud;
J.Chem.Theor.Comp. 2010, DOI: 10.1021/ct100117s
XCFun Version 0.99 

================================================================================

----- Orbital basis set information -----
Your calculation utilizes the basis: def2-mTZVP
----- AuxJ basis set information -----
Your calculation utilizes the basis: def2-mTZVP/J
================================================================================
                                        WARNINGS
                       Please study these warnings very carefully!
================================================================================


INFO   : the flag for use of the SHARK integral package has been found!

================================================================================
                                       INPUT FILE
================================================================================
NAME = 4sa4am-44_10_0.inp
|  1> ! B97-3c ENGRAD
|  2> %pal nprocs 1
|  3>     end
|  4> %Maxcore 3000.00
|  5> * xyzfile 0 1 4sa4am-44_10_0.xyz
|  6>   
|  7> 
|  8>                          ****END OF INPUT****
================================================================================

                     *******************************
                     * Energy+Gradient Calculation *
                     *******************************

---------------------------------
CARTESIAN COORDINATES (ANGSTROEM)
---------------------------------
  S      3.193277   -2.951475   -0.346792
  O      3.693531   -1.588741   -0.344346
  O      2.859910   -3.462403    0.967182
  O      2.122821   -3.151213   -1.320561
  O      4.384962   -3.878623   -0.916035
  H      5.102857   -3.876488   -0.273087
  S     -3.193254    2.951443    0.346723
  O     -2.860062    3.462222   -0.967459
  O     -3.693525    1.588642    0.344527
  O     -2.122640    3.151384    1.320380
  O     -4.384900    3.878610    0.916044
  H     -5.102906    3.876333    0.273158
  S      1.745723    0.832833    0.791614
  O      0.994030   -0.403994    1.003269
  O      1.799758    1.205432   -0.629288
  O      1.269834    1.917309    1.627207
  O      3.231439    0.543301    1.245205
  H      3.537542   -0.258269    0.754152
  S     -1.745772   -0.832805   -0.791563
  O     -1.799838   -1.205430    0.629332
  O     -0.994070    0.404025   -1.003175
  O     -1.269871   -1.917262   -1.627169
  O     -3.231480   -0.543269   -1.245175
  H     -3.537597    0.258280   -0.754096
  N      1.268306   -0.827470   -2.304764
  H      1.619491   -0.560551   -3.210306
  H      0.265284   -1.006448   -2.330085
  H      1.731931   -1.693699   -1.974288
  H      1.451730   -0.075796   -1.612218
  N     -0.183565    2.991812   -0.569278
  H      0.641113    3.151891   -1.130551
  H     -0.475292    2.011442   -0.690372
  H      0.043504    3.114094    0.414307
  H     -0.980951    3.574320   -0.828745
  N      0.183637   -2.991827    0.569282
  H     -0.640161   -3.152355    1.131085
  H      0.981027   -3.574153    0.827505
  H     -0.044406   -3.113809   -0.413707
  H      0.475389   -2.011483    0.690479
  N     -1.268322    0.827515    2.304753
  H     -1.619566    0.560665    3.210318
  H     -0.265272    1.006424    2.330095
  H     -1.451763    0.075807    1.612249
  H     -1.731883    1.693779    1.974194

----------------------------
CARTESIAN COORDINATES (A.U.)
----------------------------
  NO LB      ZA    FRAG     MASS         X           Y           Z
   0 S    16.0000    0    32.060    6.034420   -5.577480   -0.655342
   1 O     8.0000    0    15.999    6.979763   -3.002286   -0.650719
   2 O     8.0000    0    15.999    5.404447   -6.542993    1.827709
   3 O     8.0000    0    15.999    4.011550   -5.954929   -2.495498
   4 O     8.0000    0    15.999    8.286377   -7.329535   -1.731056
   5 H     1.0000    0     1.008    9.643002   -7.325500   -0.516060
   6 S    16.0000    0    32.060   -6.034375    5.577420    0.655212
   7 O     8.0000    0    15.999   -5.404735    6.542652   -1.828233
   8 O     8.0000    0    15.999   -6.979750    3.002098    0.651062
   9 O     8.0000    0    15.999   -4.011208    5.955253    2.495157
  10 O     8.0000    0    15.999   -8.286259    7.329510    1.731073
  11 H     1.0000    0     1.008   -9.643096    7.325207    0.516194
  12 S    16.0000    0    32.060    3.298938    1.573827    1.495933
  13 O     8.0000    0    15.999    1.878444   -0.763437    1.895904
  14 O     8.0000    0    15.999    3.401051    2.277936   -1.189182
  15 O     8.0000    0    15.999    2.399639    3.623188    3.074975
  16 O     8.0000    0    15.999    6.106534    1.026691    2.353097
  17 H     1.0000    0     1.008    6.684986   -0.488057    1.425140
  18 S    16.0000    0    32.060   -3.299031   -1.573774   -1.495836
  19 O     8.0000    0    15.999   -3.401200   -2.277932    1.189265
  20 O     8.0000    0    15.999   -1.878520    0.763496   -1.895726
  21 O     8.0000    0    15.999   -2.399709   -3.623100   -3.074904
  22 O     8.0000    0    15.999   -6.106612   -1.026631   -2.353040
  23 H     1.0000    0     1.008   -6.685090    0.488079   -1.425035
  24 N     7.0000    0    14.007    2.396751   -1.563692   -4.355373
  25 H     1.0000    0     1.008    3.060394   -1.059288   -6.066599
  26 H     1.0000    0     1.008    0.501314   -1.901910   -4.403222
  27 H     1.0000    0     1.008    3.272874   -3.200626   -3.730863
  28 H     1.0000    0     1.008    2.743372   -0.143233   -3.046650
  29 N     7.0000    0    14.007   -0.346888    5.653705   -1.075779
  30 H     1.0000    0     1.008    1.211528    5.956210   -2.136432
  31 H     1.0000    0     1.008   -0.898172    3.801075   -1.304614
  32 H     1.0000    0     1.008    0.082211    5.884784    0.782926
  33 H     1.0000    0     1.008   -1.853729    6.754486   -1.566102
  34 N     7.0000    0    14.007    0.347023   -5.653735    1.075788
  35 H     1.0000    0     1.008   -1.209729   -5.957087    2.137441
  36 H     1.0000    0     1.008    1.853872   -6.754171    1.563758
  37 H     1.0000    0     1.008   -0.083914   -5.884247   -0.781793
  38 H     1.0000    0     1.008    0.898355   -3.801153    1.304815
  39 N     7.0000    0    14.007   -2.396781    1.563778    4.355352
  40 H     1.0000    0     1.008   -3.060536    1.059503    6.066622
  41 H     1.0000    0     1.008   -0.501291    1.901866    4.403241
  42 H     1.0000    0     1.008   -2.743435    0.143254    3.046710
  43 H     1.0000    0     1.008   -3.272784    3.200779    3.730687

--------------------------------
INTERNAL COORDINATES (ANGSTROEM)
--------------------------------
 S      0   0   0     0.000000000000     0.00000000     0.00000000
 O      1   0   0     1.451655588427     0.00000000     0.00000000
 O      1   2   0     1.448692010482   114.13258314     0.00000000
 O      1   2   3     1.460820958954   112.45760087   130.16111007
 O      1   2   3     1.613614822676   106.58731591   242.49030967
 H      5   1   2     0.963721811764   108.27084562    67.42217174
 S      4   1   2     8.263346650897   103.64730410   308.74444909
 O      7   4   1     1.448788232874    85.95123288   114.66957273
 O      7   4   1     1.451724441666    61.84264995   234.85266627
 O      7   4   1     1.460889869735    76.35441347     0.00000000
 O      7   4   1     1.613624203632   166.07858223   270.39585709
 H     11   7   8     0.963764595332   108.26830829    54.90223828
 S      2   1   3     3.308834606096   118.99537957   298.99507460
 O     13   2   1     1.462730500971    74.53603695     3.56005312
 O     13   2   1     1.469935866470    80.32905568   247.46678402
 O     13   2   1     1.449404173514   159.84905058   116.64889749
 O     13   2   1     1.580166517989    53.91175074   128.29414500
 H     17  13   2     0.988609036369   107.28372789   358.06972591
 S     14  13   2     3.303303222523   117.21792387   247.45147077
 O     19  14  13     1.469936588564    62.49649784   222.19859292
 O     19  14  13     1.462731711390    62.78073713     0.00000000
 O     19  14  13     1.449401815836    97.93466946   111.12035911
 O     19  14  13     1.580166012697   155.78643070   290.95372996
 H     23  19  14     0.988609506308   107.28345728     6.25530386
 N      4   1   2     2.664325525757   111.22350537   349.08038805
 H     25   4   1     1.007264928047   116.83312582    99.97943658
 H     25   4   1     1.019179860328    99.88413610   220.37677950
 H     25   4   1     1.036587525815     8.09006690    58.98428629
 H     25   4   1     1.038402432727   109.16704726   334.06717958
 N     15  13   2     2.669892833648    96.92467509   167.37335472
 H     30  15  13     1.010320238394    59.14767750   141.72123625
 H     30  15  13     1.029996446600    64.59012638   275.52293378
 H     30  15  13     1.016834336522    86.34884238    26.23159611
 H     30  15  13     1.021010750242   162.97180482   212.09462837
 N     20  19  14     2.670017281247    96.92332123   301.60223357
 H     35  20  19     1.009967205651    59.19599502   218.23779906
 H     35  20  19     1.020594704169   163.03070561   147.80431682
 H     35  20  19     1.016440503482    86.29482504   333.73550974
 H     35  20  19     1.029991589543    64.59385984    84.48111127
 N     10   7   4     2.664435035468   111.21337248   319.65818088
 H     40  10   7     1.007288181003   116.83288419   260.02879551
 H     40  10   7     1.019195542768    99.88332981   139.63176687
 H     40  10   7     1.038401589473   109.16885864    25.94201693
 H     40  10   7     1.036615009698     8.09030513   301.03439568

---------------------------
INTERNAL COORDINATES (A.U.)
---------------------------
 S      0   0   0     0.000000000000     0.00000000     0.00000000
 O      1   0   0     2.743231502904     0.00000000     0.00000000
 O      1   2   0     2.737631152211   114.13258314     0.00000000
 O      1   2   3     2.760551543115   112.45760087   130.16111007
 O      1   2   3     3.049290100493   106.58731591   242.49030967
 H      5   1   2     1.821170293521   108.27084562    67.42217174
 S      4   1   2    15.615462119850   103.64730410   308.74444909
 O      7   4   1     2.737812986180    85.95123288   114.66957273
 O      7   4   1     2.743361616669    61.84264995   234.85266627
 O      7   4   1     2.760681765618    76.35441347     0.00000000
 O      7   4   1     3.049307827931   166.07858223   270.39585709
 H     11   7   8     1.821251142746   108.26830829    54.90223828
 S      2   1   3     6.252791227962   118.99537957   298.99507460
 O     13   2   1     2.764160054569    74.53603695     3.56005312
 O     13   2   1     2.777776222056    80.32905568   247.46678402
 O     13   2   1     2.738976945305   159.84905058   116.64889749
 O     13   2   1     2.986081964992    53.91175074   128.29414500
 H     17  13   2     1.868200332257   107.28372789   358.06972591
 S     14  13   2     6.242338427869   117.21792387   247.45147077
 O     19  14  13     2.777777586616    62.49649784   222.19859292
 O     19  14  13     2.764162341928    62.78073713     0.00000000
 O     19  14  13     2.738972489938    97.93466946   111.12035911
 O     19  14  13     2.986081010127   155.78643070   290.95372996
 H     23  19  14     1.868201220314   107.28345728     6.25530386
 N      4   1   2     5.034845575297   111.22350537   349.08038805
 H     25   4   1     1.903454858312   116.83312582    99.97943658
 H     25   4   1     1.925970817228    99.88413610   220.37677950
 H     25   4   1     1.958866537629     8.09006690    58.98428629
 H     25   4   1     1.962296214651   109.16704726   334.06717958
 N     15  13   2     5.045366262513    96.92467509   167.37335472
 H     30  15  13     1.909228558124    59.14767750   141.72123625
 H     30  15  13     1.946411202986    64.59012638   275.52293378
 H     30  15  13     1.921538419594    86.34884238    26.23159611
 H     30  15  13     1.929430697747   162.97180482   212.09462837
 N     20  19  14     5.045601434394    96.92332123   301.60223357
 H     35  20  19     1.908561422922    59.19599502   218.23779906
 H     35  20  19     1.928644484609   163.03070561   147.80431682
 H     35  20  19     1.920794183007    86.29482504   333.73550974
 H     35  20  19     1.946402024478    64.59385984    84.48111127
 N     10   7   4     5.035052518659   111.21337248   319.65818088
 H     40  10   7     1.903498800032   116.83288419   260.02879551
 H     40  10   7     1.926000452745    99.88332981   139.63176687
 H     40  10   7     1.962294621132   109.16885864    25.94201693
 H     40  10   7     1.958918474642     8.09030513   301.03439568

---------------------
BASIS SET INFORMATION
---------------------
There are 4 groups of distinct atoms

 Group   1 Type S   : 14s9p1d contracted to 5s4p1d pattern {73211/6111/1}
 Group   2 Type O   : 11s6p2d contracted to 5s3p2d pattern {62111/411/11}
 Group   3 Type H   : 5s contracted to 3s pattern {311}
 Group   4 Type N   : 11s6p1d contracted to 5s3p1d pattern {62111/411/1}

Atom   0S    basis set group =>   1
Atom   1O    basis set group =>   2
Atom   2O    basis set group =>   2
Atom   3O    basis set group =>   2
Atom   4O    basis set group =>   2
Atom   5H    basis set group =>   3
Atom   6S    basis set group =>   1
Atom   7O    basis set group =>   2
Atom   8O    basis set group =>   2
Atom   9O    basis set group =>   2
Atom  10O    basis set group =>   2
Atom  11H    basis set group =>   3
Atom  12S    basis set group =>   1
Atom  13O    basis set group =>   2
Atom  14O    basis set group =>   2
Atom  15O    basis set group =>   2
Atom  16O    basis set group =>   2
Atom  17H    basis set group =>   3
Atom  18S    basis set group =>   1
Atom  19O    basis set group =>   2
Atom  20O    basis set group =>   2
Atom  21O    basis set group =>   2
Atom  22O    basis set group =>   2
Atom  23H    basis set group =>   3
Atom  24N    basis set group =>   4
Atom  25H    basis set group =>   3
Atom  26H    basis set group =>   3
Atom  27H    basis set group =>   3
Atom  28H    basis set group =>   3
Atom  29N    basis set group =>   4
Atom  30H    basis set group =>   3
Atom  31H    basis set group =>   3
Atom  32H    basis set group =>   3
Atom  33H    basis set group =>   3
Atom  34N    basis set group =>   4
Atom  35H    basis set group =>   3
Atom  36H    basis set group =>   3
Atom  37H    basis set group =>   3
Atom  38H    basis set group =>   3
Atom  39N    basis set group =>   4
Atom  40H    basis set group =>   3
Atom  41H    basis set group =>   3
Atom  42H    basis set group =>   3
Atom  43H    basis set group =>   3
---------------------------------
AUXILIARY/J BASIS SET INFORMATION
---------------------------------
There are 4 groups of distinct atoms

 Group   1 Type S   : 14s5p5d2f1g contracted to 8s4p3d1f1g pattern {71111111/2111/311/2/1}
 Group   2 Type O   : 8s3p3d contracted to 6s3p3d pattern {311111/111/111}
 Group   3 Type H   : 5s2p contracted to 3s1p pattern {311/2}
 Group   4 Type N   : 8s3p3d contracted to 6s3p3d pattern {311111/111/111}

Atom   0S    basis set group =>   1
Atom   1O    basis set group =>   2
Atom   2O    basis set group =>   2
Atom   3O    basis set group =>   2
Atom   4O    basis set group =>   2
Atom   5H    basis set group =>   3
Atom   6S    basis set group =>   1
Atom   7O    basis set group =>   2
Atom   8O    basis set group =>   2
Atom   9O    basis set group =>   2
Atom  10O    basis set group =>   2
Atom  11H    basis set group =>   3
Atom  12S    basis set group =>   1
Atom  13O    basis set group =>   2
Atom  14O    basis set group =>   2
Atom  15O    basis set group =>   2
Atom  16O    basis set group =>   2
Atom  17H    basis set group =>   3
Atom  18S    basis set group =>   1
Atom  19O    basis set group =>   2
Atom  20O    basis set group =>   2
Atom  21O    basis set group =>   2
Atom  22O    basis set group =>   2
Atom  23H    basis set group =>   3
Atom  24N    basis set group =>   4
Atom  25H    basis set group =>   3
Atom  26H    basis set group =>   3
Atom  27H    basis set group =>   3
Atom  28H    basis set group =>   3
Atom  29N    basis set group =>   4
Atom  30H    basis set group =>   3
Atom  31H    basis set group =>   3
Atom  32H    basis set group =>   3
Atom  33H    basis set group =>   3
Atom  34N    basis set group =>   4
Atom  35H    basis set group =>   3
Atom  36H    basis set group =>   3
Atom  37H    basis set group =>   3
Atom  38H    basis set group =>   3
Atom  39N    basis set group =>   4
Atom  40H    basis set group =>   3
Atom  41H    basis set group =>   3
Atom  42H    basis set group =>   3
Atom  43H    basis set group =>   3
------------------------------------------------------------------------------
                           ORCA GTO INTEGRAL CALCULATION
                           -- RI-GTO INTEGRALS CHOSEN --
------------------------------------------------------------------------------
------------------------------------------------------------------------------
                   ___                                                        
                  /   \      - P O W E R E D   B Y -                         
                 /     \                                                     
                 |  |  |   _    _      __       _____    __    __             
                 |  |  |  | |  | |    /  \     |  _  \  |  |  /  |          
                  \  \/   | |  | |   /    \    | | | |  |  | /  /          
                 / \  \   | |__| |  /  /\  \   | |_| |  |  |/  /          
                |  |  |   |  __  | /  /__\  \  |    /   |      \           
                |  |  |   | |  | | |   __   |  |    \   |  |\   \          
                \     /   | |  | | |  |  |  |  | |\  \  |  | \   \       
                 \___/    |_|  |_| |__|  |__|  |_| \__\ |__|  \__/        
                                                                              
                      - O R C A' S   B I G   F R I E N D -                    
                                      &                                       
                       - I N T E G R A L  F E E D E R -                       
                                                                              
 v1 FN, 2020, v2 2021                                                         
------------------------------------------------------------------------------


Reading SHARK input file 4sa4am-44_10_0.SHARKINP.tmp ... ok
----------------------
SHARK INTEGRAL PACKAGE
----------------------

Number of atoms                             ...     44
Number of basis functions                   ...    608
Number of shells                            ...    296
Maximum angular momentum                    ...      2
Integral batch strategy                     ... SHARK/LIBINT Hybrid
RI-J (if used) integral strategy            ... SPLIT-RIJ (Revised 2003 algorithm where possible)
Printlevel                                  ...      1
Contraction scheme used                     ... SEGMENTED contraction
Coulomb Range Separation                    ... NOT USED
Exchange Range Separation                   ... NOT USED
Finite Nucleus Model                        ... NOT USED
Auxiliary Coulomb fitting basis             ... AVAILABLE
   # of basis functions in Aux-J            ...    924
   # of shells in Aux-J                     ...    388
   Maximum angular momentum in Aux-J        ...      4
Auxiliary J/K fitting basis                 ... NOT available
Auxiliary Correlation fitting basis         ... NOT available
Auxiliary 'external' fitting basis          ... NOT available
Integral threshold                          ...     2.500000e-11
Primitive cut-off                           ...     2.500000e-12
Primitive pair pre-selection threshold      ...     2.500000e-12

Calculating pre-screening integrals         ... done (  0.2 sec) Dimension = 296
Organizing shell pair data                  ... done (  1.1 sec)
Shell pair information
Total number of shell pairs                 ...     43956
Shell pairs after pre-screening             ...     30189
Total number of primitive shell pairs       ...    164538
Primitive shell pairs kept                  ...     67821
          la=0 lb=0:  10285 shell pairs
          la=1 lb=0:   9392 shell pairs
          la=1 lb=1:   2196 shell pairs
          la=2 lb=0:   5270 shell pairs
          la=2 lb=1:   2376 shell pairs
          la=2 lb=2:    670 shell pairs

Calculating one electron integrals          ... done (  0.2 sec)
Calculating RI/J V-Matrix + Cholesky decomp.... done (  0.1 sec)
Calculating Nuclear repulsion               ... done (  0.0 sec) ENN=   3887.719646510459 Eh

SHARK setup successfully completed in   2.0 seconds

Maximum memory used throughout the entire GTOINT-calculation: 214.9 MB
-------------------------------------------------------------------------------
                                 ORCA SCF
-------------------------------------------------------------------------------

------------
SCF SETTINGS
------------
Hamiltonian:
 Density Functional     Method          .... DFT(GTOs)
 Exchange Functional    Exchange        .... B973C
 Correlation Functional Correlation     .... B973C
 Gradients option       PostSCFGGA      .... off
   Density functional embedding theory  .... OFF
 RI-approximation to the Coulomb term is turned on
   Number of AuxJ basis functions       .... 924


General Settings:
 Integral files         IntName         .... 4sa4am-44_10_0
 Hartree-Fock type      HFTyp           .... RHF
 Total Charge           Charge          ....    0
 Multiplicity           Mult            ....    1
 Number of Electrons    NEL             ....  240
 Basis Dimension        Dim             ....  608
 Nuclear Repulsion      ENuc            ....   3887.7196465105 Eh

Convergence Acceleration:
 DIIS                   CNVDIIS         .... on
   Start iteration      DIISMaxIt       ....    12
   Startup error        DIISStart       ....  0.200000
   # of expansion vecs  DIISMaxEq       ....     5
   Bias factor          DIISBfac        ....   1.050
   Max. coefficient     DIISMaxC        ....  10.000
 Trust-Rad. Augm. Hess. CNVTRAH         .... auto
   Auto Start mean grad. ratio tolernc. ....  1.125000
   Auto Start start iteration           ....    20
   Auto Start num. interpolation iter.  ....    10
   Max. Number of Micro iterations      ....    16
   Max. Number of Macro iterations      .... Maxiter - #DIIS iter
   Number of Davidson start vectors     ....     2
   Converg. threshold I  (grad. norm)   ....   1.000e-05
   Converg. threshold II (energy diff.) ....   1.000e-08
   Grad. Scal. Fac. for Micro threshold ....   0.100
   Minimum threshold for Micro iter.    ....   0.010
   NR start threshold (gradient norm)   ....   0.001
   Initial trust radius                 ....   0.400
   Minimum AH scaling param. (alpha)    ....   1.000
   Maximum AH scaling param. (alpha)    .... 1000.000
   Orbital update algorithm             .... Taylor
   White noise on init. David. guess    .... on
   Maximum white noise                  ....   0.010
   Quad. conv. algorithm                .... NR
   COSX micro iterations for RIJONX calc.... off
 SOSCF                  CNVSOSCF        .... on
   Start iteration      SOSCFMaxIt      ....   150
   Startup grad/error   SOSCFStart      ....  0.003300
 Level Shifting         CNVShift        .... on
   Level shift para.    LevelShift      ....    0.2500
   Turn off err/grad.   ShiftErr        ....    0.0010
 Zerner damping         CNVZerner       .... off
 Static damping         CNVDamp         .... on
   Fraction old density DampFac         ....    0.7000
   Max. Damping (<1)    DampMax         ....    0.9800
   Min. Damping (>=0)   DampMin         ....    0.0000
   Turn off err/grad.   DampErr         ....    0.1000
 Fernandez-Rico         CNVRico         .... off

SCF Procedure:
 Maximum # iterations   MaxIter         ....   125
 SCF integral mode      SCFMode         .... Direct
   Integral package                     .... SHARK and LIBINT hybrid scheme
 Reset frequency        DirectResetFreq ....    20
 Integral Threshold     Thresh          ....  2.500e-11 Eh
 Primitive CutOff       TCut            ....  2.500e-12 Eh

Convergence Tolerance:
 Convergence Check Mode ConvCheckMode   .... Total+1el-Energy
 Convergence forced     ConvForced      .... 0
 Energy Change          TolE            ....  1.000e-08 Eh
 1-El. energy change                    ....  1.000e-05 Eh
 Orbital Gradient       TolG            ....  1.000e-05
 Orbital Rotation angle TolX            ....  1.000e-05
 DIIS Error             TolErr          ....  5.000e-07


Diagonalization of the overlap matrix:
Smallest eigenvalue                        ... 2.089e-04
Time for diagonalization                   ...    0.122 sec
Threshold for overlap eigenvalues          ... 1.000e-08
Number of eigenvalues below threshold      ... 0
Time for construction of square roots      ...    0.096 sec
Total time needed                          ...    0.220 sec

--------------------------------
INITIAL GUESS: MINIMAL BASIS EHT
--------------------------------
The minimal basis has 156 functions
EHT matrix was diagonalized
Basis set overlap was calculated now projecting the orbitals
Using GuessMode=FMatrix for the initial guess
C*T matrix was formed
Effective Fockian was calculated
Effective Fockian was diagonalized
Initial density was built
                      ------------------
                      INITIAL GUESS DONE
                      ------------------
-------------------
DFT GRID GENERATION
-------------------

General Integration Accuracy     IntAcc      ... 4.388
Radial Grid Type                 RadialGrid  ... OptM3 with GC (2021)
Angular Grid (max. ang.)         AngularGrid ... 4 (Lebedev-302)
Angular grid pruning method      GridPruning ... 4 (adaptive)
Weight generation scheme         WeightScheme... Becke
Basis function cutoff            BFCut       ... 1.0000e-11
Integration weight cutoff        WCut        ... 1.0000e-14
Angular grids for H and He will be reduced by one unit
Partially contracted basis set               ... off
Rotationally invariant grid construction     ... off

Total number of grid points                  ...   217265
Total number of batches                      ...     3422
Average number of points per batch           ...       63
Average number of grid points per atom       ...     4938
Time for grid setup =    4.706 sec

--------------
SCF ITERATIONS
--------------
ITER       Energy         Delta-E        Max-DP      RMS-DP      [F,P]     Damp
               ***  Starting incremental Fock matrix formation  ***
  0  -3015.1906549780   0.000000000000 0.68568876  0.00539263  0.8470277 0.7000
  1  -3019.3986390964  -4.207984118309 0.17401306  0.00236591  0.5994663 0.7000
  2  -3021.3173106939  -1.918671597512 0.12782064  0.00142110  0.4110257 0.7000
  3  -3022.8241469136  -1.506836219680 0.10759605  0.00109005  0.2747013 0.7000
                               ***Turning on DIIS***
  4  -3023.8934865633  -1.069339649724 0.07975054  0.00080967  0.1825332 0.7000
  5  -3024.6360826901  -0.742596126829 0.05619500  0.00059835  0.1228237 0.7000
  6  -3025.1546227468  -0.518540056679 0.13315297  0.00143123  0.0857809 0.0000
                      *** Initiating the SOSCF procedure ***
                           *** Shutting down DIIS ***
                      *** Re-Reading the Fockian *** 
                      *** Removing any level shift *** 
ITER      Energy       Delta-E        Grad      Rot      Max-DP    RMS-DP
  7  -3026.36716539  -1.2125426430  0.000843  0.000843  0.002254  0.000045
               *** Restarting incremental Fock matrix formation ***
  8  -3026.36713113   0.0000342557  0.001130  0.002204  0.003775  0.000080
  9  -3026.36647760   0.0006535378  0.002535  0.001575  0.002850  0.000059
 10  -3026.36727822  -0.0008006197  0.000110  0.000327  0.000569  0.000008
 11  -3026.36727402   0.0000041968  0.000259  0.000241  0.000310  0.000005
 12  -3026.36727943  -0.0000054085  0.000026  0.000048  0.000301  0.000003
 13  -3026.36727925   0.0000001733  0.000044  0.000030  0.000196  0.000002
 14  -3026.36727962  -0.0000003703  0.000004  0.000012  0.000027  0.000000
 15  -3026.36727960   0.0000000275  0.000010  0.000009  0.000020  0.000000
                  ***Gradient check signals convergence***
              ***Rediagonalizing the Fockian in SOSCF/NRSCF***

               *****************************************************
               *                     SUCCESS                       *
               *           SCF CONVERGED AFTER  16 CYCLES          *
               *****************************************************


----------------
TOTAL SCF ENERGY
----------------

Total Energy       :        -3026.36727962 Eh          -82351.64035 eV

Components:
Nuclear Repulsion  :         3887.71964651 Eh          105790.22985 eV
Electronic Energy  :        -6914.08692613 Eh         -188141.87021 eV
One Electron Energy:       -11924.50039094 Eh         -324482.15199 eV
Two Electron Energy:         5010.41346481 Eh          136340.28178 eV

Virial components:
Potential Energy   :        -6045.75772253 Eh         -164513.43133 eV
Kinetic Energy     :         3019.39044291 Eh           82161.79098 eV
Virial Ratio       :            2.00231068


DFT components:
N(Alpha)           :      120.000125008625 electrons
N(Beta)            :      120.000125008625 electrons
N(Total)           :      240.000250017250 electrons
E(XC)              :     -275.133598307694 Eh       
DFET-embed. en.    :        0.000000000000 Eh       

---------------
SCF CONVERGENCE
---------------

  Last Energy change         ...   -1.9953e-08  Tolerance :   1.0000e-08
  Last MAX-Density change    ...    7.3906e-06  Tolerance :   1.0000e-07
  Last RMS-Density change    ...    1.1843e-07  Tolerance :   5.0000e-09
  Last Orbital Gradient      ...    1.3393e-06  Tolerance :   1.0000e-05
  Last Orbital Rotation      ...    2.4410e-06  Tolerance :   1.0000e-05

             **** THE GBW FILE WAS UPDATED (4sa4am-44_10_0.gbw) ****
             **** DENSITY 4sa4am-44_10_0.scfp WAS UPDATED ****
             **** ENERGY FILE WAS UPDATED (4sa4am-44_10_0.en.tmp) ****
             **** THE GBW FILE WAS UPDATED (4sa4am-44_10_0.gbw) ****
             **** DENSITY 4sa4am-44_10_0.scfp WAS UPDATED ****
----------------
ORBITAL ENERGIES
----------------

  NO   OCC          E(Eh)            E(eV) 
   0   2.0000     -88.269173     -2401.9263 
   1   2.0000     -88.269166     -2401.9261 
   2   2.0000     -88.268173     -2401.8991 
   3   2.0000     -88.268153     -2401.8985 
   4   2.0000     -18.787099      -511.2230 
   5   2.0000     -18.787078      -511.2224 
   6   2.0000     -18.770066      -510.7595 
   7   2.0000     -18.770060      -510.7593 
   8   2.0000     -18.742669      -510.0140 
   9   2.0000     -18.742652      -510.0135 
  10   2.0000     -18.741255      -509.9755 
  11   2.0000     -18.741253      -509.9754 
  12   2.0000     -18.736222      -509.8385 
  13   2.0000     -18.736205      -509.8381 
  14   2.0000     -18.734994      -509.8051 
  15   2.0000     -18.734986      -509.8049 
  16   2.0000     -18.732406      -509.7347 
  17   2.0000     -18.732398      -509.7345 
  18   2.0000     -18.732087      -509.7260 
  19   2.0000     -18.732071      -509.7256 
  20   2.0000     -14.079085      -383.1114 
  21   2.0000     -14.079041      -383.1102 
  22   2.0000     -14.061962      -382.6454 
  23   2.0000     -14.061954      -382.6452 
  24   2.0000      -7.929540      -215.7737 
  25   2.0000      -7.929533      -215.7736 
  26   2.0000      -7.929222      -215.7651 
  27   2.0000      -7.929208      -215.7647 
  28   2.0000      -5.959890      -162.1768 
  29   2.0000      -5.959875      -162.1764 
  30   2.0000      -5.959595      -162.1688 
  31   2.0000      -5.959589      -162.1687 
  32   2.0000      -5.957627      -162.1153 
  33   2.0000      -5.957620      -162.1151 
  34   2.0000      -5.957126      -162.1016 
  35   2.0000      -5.957119      -162.1015 
  36   2.0000      -5.956994      -162.0980 
  37   2.0000      -5.956979      -162.0976 
  38   2.0000      -5.956268      -162.0783 
  39   2.0000      -5.956253      -162.0779 
  40   2.0000      -1.090692       -29.6792 
  41   2.0000      -1.090220       -29.6664 
  42   2.0000      -1.088287       -29.6138 
  43   2.0000      -1.087137       -29.5825 
  44   2.0000      -0.962340       -26.1866 
  45   2.0000      -0.962138       -26.1811 
  46   2.0000      -0.953695       -25.9514 
  47   2.0000      -0.952229       -25.9115 
  48   2.0000      -0.934757       -25.4360 
  49   2.0000      -0.933506       -25.4020 
  50   2.0000      -0.932873       -25.3848 
  51   2.0000      -0.932360       -25.3708 
  52   2.0000      -0.931257       -25.3408 
  53   2.0000      -0.930117       -25.3098 
  54   2.0000      -0.927703       -25.2441 
  55   2.0000      -0.924814       -25.1655 
  56   2.0000      -0.907700       -24.6998 
  57   2.0000      -0.904725       -24.6188 
  58   2.0000      -0.893278       -24.3073 
  59   2.0000      -0.891014       -24.2457 
  60   2.0000      -0.597153       -16.2494 
  61   2.0000      -0.596813       -16.2401 
  62   2.0000      -0.586232       -15.9522 
  63   2.0000      -0.582566       -15.8524 
  64   2.0000      -0.531841       -14.4721 
  65   2.0000      -0.528653       -14.3854 
  66   2.0000      -0.525902       -14.3105 
  67   2.0000      -0.524186       -14.2638 
  68   2.0000      -0.522035       -14.2053 
  69   2.0000      -0.521419       -14.1885 
  70   2.0000      -0.517340       -14.0775 
  71   2.0000      -0.516265       -14.0483 
  72   2.0000      -0.512828       -13.9548 
  73   2.0000      -0.507595       -13.8124 
  74   2.0000      -0.504556       -13.7297 
  75   2.0000      -0.503571       -13.7029 
  76   2.0000      -0.485989       -13.2244 
  77   2.0000      -0.483353       -13.1527 
  78   2.0000      -0.476233       -12.9590 
  79   2.0000      -0.472795       -12.8654 
  80   2.0000      -0.447657       -12.1814 
  81   2.0000      -0.444745       -12.1021 
  82   2.0000      -0.442070       -12.0293 
  83   2.0000      -0.440936       -11.9985 
  84   2.0000      -0.434118       -11.8129 
  85   2.0000      -0.433986       -11.8094 
  86   2.0000      -0.431903       -11.7527 
  87   2.0000      -0.427374       -11.6294 
  88   2.0000      -0.391631       -10.6568 
  89   2.0000      -0.391520       -10.6538 
  90   2.0000      -0.382292       -10.4027 
  91   2.0000      -0.379626       -10.3302 
  92   2.0000      -0.334055        -9.0901 
  93   2.0000      -0.333189        -9.0665 
  94   2.0000      -0.328302        -8.9336 
  95   2.0000      -0.327558        -8.9133 
  96   2.0000      -0.325543        -8.8585 
  97   2.0000      -0.322827        -8.7846 
  98   2.0000      -0.321185        -8.7399 
  99   2.0000      -0.320046        -8.7089 
 100   2.0000      -0.316185        -8.6038 
 101   2.0000      -0.315651        -8.5893 
 102   2.0000      -0.313075        -8.5192 
 103   2.0000      -0.311891        -8.4870 
 104   2.0000      -0.310765        -8.4563 
 105   2.0000      -0.309147        -8.4123 
 106   2.0000      -0.308775        -8.4022 
 107   2.0000      -0.300814        -8.1856 
 108   2.0000      -0.274478        -7.4689 
 109   2.0000      -0.272619        -7.4183 
 110   2.0000      -0.271466        -7.3870 
 111   2.0000      -0.262953        -7.1553 
 112   2.0000      -0.252354        -6.8669 
 113   2.0000      -0.252308        -6.8657 
 114   2.0000      -0.249763        -6.7964 
 115   2.0000      -0.244011        -6.6399 
 116   2.0000      -0.243903        -6.6369 
 117   2.0000      -0.243409        -6.6235 
 118   2.0000      -0.240316        -6.5393 
 119   2.0000      -0.240308        -6.5391 
 120   0.0000      -0.014510        -0.3948 
 121   0.0000       0.002029         0.0552 
 122   0.0000       0.008878         0.2416 
 123   0.0000       0.013461         0.3663 
 124   0.0000       0.019815         0.5392 
 125   0.0000       0.021938         0.5970 
 126   0.0000       0.052364         1.4249 
 127   0.0000       0.052667         1.4331 
 128   0.0000       0.060244         1.6393 
 129   0.0000       0.065788         1.7902 
 130   0.0000       0.071289         1.9399 
 131   0.0000       0.071607         1.9485 
 132   0.0000       0.078574         2.1381 
 133   0.0000       0.081918         2.2291 
 134   0.0000       0.084927         2.3110 
 135   0.0000       0.087644         2.3849 
 136   0.0000       0.089983         2.4486 
 137   0.0000       0.093403         2.5416 
 138   0.0000       0.098109         2.6697 
 139   0.0000       0.102120         2.7788 
 140   0.0000       0.105243         2.8638 
 141   0.0000       0.108054         2.9403 
 142   0.0000       0.113931         3.1002 
 143   0.0000       0.124375         3.3844 
 144   0.0000       0.126679         3.4471 
 145   0.0000       0.131840         3.5875 
 146   0.0000       0.133038         3.6201 
 147   0.0000       0.141300         3.8450 
 148   0.0000       0.142707         3.8832 
 149   0.0000       0.147044         4.0013 
 150   0.0000       0.152340         4.1454 
 151   0.0000       0.153483         4.1765 
 152   0.0000       0.154668         4.2087 
 153   0.0000       0.158520         4.3136 
 154   0.0000       0.167714         4.5637 
 155   0.0000       0.168046         4.5728 
 156   0.0000       0.176716         4.8087 
 157   0.0000       0.178406         4.8547 
 158   0.0000       0.180197         4.9034 
 159   0.0000       0.185243         5.0407 
 160   0.0000       0.188378         5.1260 
 161   0.0000       0.194729         5.2989 
 162   0.0000       0.197917         5.3856 
 163   0.0000       0.198008         5.3881 
 164   0.0000       0.203775         5.5450 
 165   0.0000       0.205736         5.5984 
 166   0.0000       0.212134         5.7725 
 167   0.0000       0.213700         5.8151 
 168   0.0000       0.220751         6.0069 
 169   0.0000       0.225397         6.1334 
 170   0.0000       0.232026         6.3138 
 171   0.0000       0.233947         6.3660 
 172   0.0000       0.245495         6.6803 
 173   0.0000       0.245693         6.6856 
 174   0.0000       0.249123         6.7790 
 175   0.0000       0.251198         6.8354 
 176   0.0000       0.255541         6.9536 
 177   0.0000       0.257447         7.0055 
 178   0.0000       0.262517         7.1434 
 179   0.0000       0.268607         7.3092 
 180   0.0000       0.270111         7.3501 
 181   0.0000       0.272082         7.4037 
 182   0.0000       0.273747         7.4490 
 183   0.0000       0.276195         7.5157 
 184   0.0000       0.289125         7.8675 
 185   0.0000       0.291177         7.9233 
 186   0.0000       0.294376         8.0104 
 187   0.0000       0.303622         8.2620 
 188   0.0000       0.305231         8.3058 
 189   0.0000       0.309988         8.4352 
 190   0.0000       0.317893         8.6503 
 191   0.0000       0.319522         8.6946 
 192   0.0000       0.320863         8.7311 
 193   0.0000       0.326743         8.8911 
 194   0.0000       0.328282         8.9330 
 195   0.0000       0.331603         9.0234 
 196   0.0000       0.343306         9.3418 
 197   0.0000       0.345306         9.3962 
 198   0.0000       0.350896         9.5484 
 199   0.0000       0.355523         9.6743 
 200   0.0000       0.360330         9.8051 
 201   0.0000       0.360755         9.8166 
 202   0.0000       0.361778         9.8445 
 203   0.0000       0.365370         9.9422 
 204   0.0000       0.368329        10.0228 
 205   0.0000       0.375147        10.2083 
 206   0.0000       0.378777        10.3070 
 207   0.0000       0.383148        10.4260 
 208   0.0000       0.384866        10.4727 
 209   0.0000       0.390415        10.6237 
 210   0.0000       0.392142        10.6707 
 211   0.0000       0.395006        10.7487 
 212   0.0000       0.396392        10.7864 
 213   0.0000       0.402453        10.9513 
 214   0.0000       0.403354        10.9758 
 215   0.0000       0.410077        11.1588 
 216   0.0000       0.415400        11.3036 
 217   0.0000       0.422435        11.4951 
 218   0.0000       0.424991        11.5646 
 219   0.0000       0.428736        11.6665 
 220   0.0000       0.436692        11.8830 
 221   0.0000       0.443366        12.0646 
 222   0.0000       0.444595        12.0981 
 223   0.0000       0.453066        12.3286 
 224   0.0000       0.462390        12.5823 
 225   0.0000       0.463215        12.6047 
 226   0.0000       0.464629        12.6432 
 227   0.0000       0.470697        12.8083 
 228   0.0000       0.470850        12.8125 
 229   0.0000       0.471873        12.8403 
 230   0.0000       0.479528        13.0486 
 231   0.0000       0.483234        13.1495 
 232   0.0000       0.484527        13.1846 
 233   0.0000       0.487617        13.2687 
 234   0.0000       0.494280        13.4500 
 235   0.0000       0.499691        13.5973 
 236   0.0000       0.505722        13.7614 
 237   0.0000       0.508473        13.8363 
 238   0.0000       0.511900        13.9295 
 239   0.0000       0.517642        14.0858 
 240   0.0000       0.522038        14.2054 
 241   0.0000       0.530333        14.4311 
 242   0.0000       0.530783        14.4434 
 243   0.0000       0.534414        14.5422 
 244   0.0000       0.534739        14.5510 
 245   0.0000       0.548031        14.9127 
 246   0.0000       0.552129        15.0242 
 247   0.0000       0.553993        15.0749 
 248   0.0000       0.560369        15.2484 
 249   0.0000       0.568219        15.4620 
 250   0.0000       0.575415        15.6578 
 251   0.0000       0.577718        15.7205 
 252   0.0000       0.585690        15.9374 
 253   0.0000       0.590952        16.0806 
 254   0.0000       0.591887        16.1061 
 255   0.0000       0.599930        16.3249 
 256   0.0000       0.606695        16.5090 
 257   0.0000       0.610262        16.6061 
 258   0.0000       0.612804        16.6752 
 259   0.0000       0.624600        16.9962 
 260   0.0000       0.633665        17.2429 
 261   0.0000       0.639917        17.4130 
 262   0.0000       0.643554        17.5120 
 263   0.0000       0.648013        17.6333 
 264   0.0000       0.657585        17.8938 
 265   0.0000       0.658695        17.9240 
 266   0.0000       0.666003        18.1229 
 267   0.0000       0.674644        18.3580 
 268   0.0000       0.678002        18.4494 
 269   0.0000       0.683581        18.6012 
 270   0.0000       0.689422        18.7601 
 271   0.0000       0.691664        18.8211 
 272   0.0000       0.697171        18.9710 
 273   0.0000       0.698375        19.0037 
 274   0.0000       0.700546        19.0628 
 275   0.0000       0.702802        19.1242 
 276   0.0000       0.708311        19.2741 
 277   0.0000       0.712479        19.3875 
 278   0.0000       0.720272        19.5996 
 279   0.0000       0.728070        19.8118 
 280   0.0000       0.730859        19.8877 
 281   0.0000       0.739818        20.1315 
 282   0.0000       0.747529        20.3413 
 283   0.0000       0.748549        20.3691 
 284   0.0000       0.751874        20.4595 
 285   0.0000       0.756452        20.5841 
 286   0.0000       0.761894        20.7322 
 287   0.0000       0.765135        20.8204 
 288   0.0000       0.766569        20.8594 
 289   0.0000       0.768925        20.9235 
 290   0.0000       0.781344        21.2615 
 291   0.0000       0.790388        21.5076 
 292   0.0000       0.792720        21.5710 
 293   0.0000       0.803121        21.8540 
 294   0.0000       0.803609        21.8673 
 295   0.0000       0.816438        22.2164 
 296   0.0000       0.818018        22.2594 
 297   0.0000       0.819679        22.3046 
 298   0.0000       0.821182        22.3455 
 299   0.0000       0.827731        22.5237 
 300   0.0000       0.842497        22.9255 
 301   0.0000       0.847616        23.0648 
 302   0.0000       0.850018        23.1302 
 303   0.0000       0.854396        23.2493 
 304   0.0000       0.856646        23.3105 
 305   0.0000       0.861368        23.4390 
 306   0.0000       0.869827        23.6692 
 307   0.0000       0.875317        23.8186 
 308   0.0000       0.881351        23.9828 
 309   0.0000       0.886399        24.1202 
 310   0.0000       0.887289        24.1444 
 311   0.0000       0.890949        24.2439 
 312   0.0000       0.891774        24.2664 
 313   0.0000       0.897830        24.4312 
 314   0.0000       0.908852        24.7311 
 315   0.0000       0.913405        24.8550 
 316   0.0000       0.914509        24.8851 
 317   0.0000       0.921956        25.0877 
 318   0.0000       0.922610        25.1055 
 319   0.0000       0.932335        25.3701 
 320   0.0000       0.934532        25.4299 
 321   0.0000       0.934642        25.4329 
 322   0.0000       0.938637        25.5416 
 323   0.0000       0.943540        25.6750 
 324   0.0000       0.944812        25.7096 
 325   0.0000       0.954234        25.9660 
 326   0.0000       0.956416        26.0254 
 327   0.0000       0.961218        26.1561 
 328   0.0000       0.965786        26.2804 
 329   0.0000       0.967221        26.3194 
 330   0.0000       0.981646        26.7120 
 331   0.0000       0.984996        26.8031 
 332   0.0000       0.992070        26.9956 
 333   0.0000       0.994613        27.0648 
 334   0.0000       1.005246        27.3541 
 335   0.0000       1.013330        27.5741 
 336   0.0000       1.021607        27.7993 
 337   0.0000       1.029111        28.0035 
 338   0.0000       1.035651        28.1815 
 339   0.0000       1.040405        28.3108 
 340   0.0000       1.044128        28.4122 
 341   0.0000       1.045413        28.4471 
 342   0.0000       1.050246        28.5787 
 343   0.0000       1.064079        28.9551 
 344   0.0000       1.074653        29.2428 
 345   0.0000       1.077744        29.3269 
 346   0.0000       1.081599        29.4318 
 347   0.0000       1.088161        29.6104 
 348   0.0000       1.090584        29.6763 
 349   0.0000       1.093155        29.7463 
 350   0.0000       1.103732        30.0341 
 351   0.0000       1.107022        30.1236 
 352   0.0000       1.113651        30.3040 
 353   0.0000       1.121574        30.5196 
 354   0.0000       1.123356        30.5681 
 355   0.0000       1.128422        30.7059 
 356   0.0000       1.131391        30.7867 
 357   0.0000       1.139998        31.0209 
 358   0.0000       1.159483        31.5511 
 359   0.0000       1.160161        31.5696 
 360   0.0000       1.175503        31.9871 
 361   0.0000       1.183923        32.2162 
 362   0.0000       1.192052        32.4374 
 363   0.0000       1.211478        32.9660 
 364   0.0000       1.211719        32.9726 
 365   0.0000       1.241258        33.7763 
 366   0.0000       1.255409        34.1614 
 367   0.0000       1.270350        34.5680 
 368   0.0000       1.273923        34.6652 
 369   0.0000       1.305643        35.5284 
 370   0.0000       1.335406        36.3382 
 371   0.0000       1.356223        36.9047 
 372   0.0000       1.531753        41.6811 
 373   0.0000       1.540334        41.9146 
 374   0.0000       1.544657        42.0322 
 375   0.0000       1.551544        42.2197 
 376   0.0000       1.555748        42.3341 
 377   0.0000       1.568302        42.6757 
 378   0.0000       1.589832        43.2615 
 379   0.0000       1.636964        44.5440 
 380   0.0000       1.734207        47.1902 
 381   0.0000       1.735142        47.2156 
 382   0.0000       1.765990        48.0550 
 383   0.0000       1.776313        48.3359 
 384   0.0000       1.776639        48.3448 
 385   0.0000       1.780252        48.4431 
 386   0.0000       1.835316        49.9415 
 387   0.0000       1.839619        50.0586 
 388   0.0000       1.855458        50.4896 
 389   0.0000       1.855969        50.5035 
 390   0.0000       1.877894        51.1001 
 391   0.0000       1.878412        51.1142 
 392   0.0000       1.897597        51.6363 
 393   0.0000       1.898190        51.6524 
 394   0.0000       1.906830        51.8875 
 395   0.0000       1.907741        51.9123 
 396   0.0000       1.944557        52.9141 
 397   0.0000       1.946650        52.9710 
 398   0.0000       1.949699        53.0540 
 399   0.0000       1.950992        53.0892 
 400   0.0000       1.955765        53.2191 
 401   0.0000       1.959686        53.3258 
 402   0.0000       1.963236        53.4224 
 403   0.0000       1.965006        53.4705 
 404   0.0000       1.966450        53.5098 
 405   0.0000       1.973873        53.7118 
 406   0.0000       1.979999        53.8785 
 407   0.0000       1.984469        54.0001 
 408   0.0000       1.995493        54.3001 
 409   0.0000       1.998910        54.3931 
 410   0.0000       2.012484        54.7625 
 411   0.0000       2.019739        54.9599 
 412   0.0000       2.023726        55.0684 
 413   0.0000       2.024102        55.0786 
 414   0.0000       2.030587        55.2551 
 415   0.0000       2.031682        55.2849 
 416   0.0000       2.033640        55.3381 
 417   0.0000       2.044758        55.6407 
 418   0.0000       2.045403        55.6583 
 419   0.0000       2.050569        55.7988 
 420   0.0000       2.051416        55.8219 
 421   0.0000       2.054309        55.9006 
 422   0.0000       2.055143        55.9233 
 423   0.0000       2.062617        56.1267 
 424   0.0000       2.078181        56.5502 
 425   0.0000       2.081769        56.6478 
 426   0.0000       2.085998        56.7629 
 427   0.0000       2.092819        56.9485 
 428   0.0000       2.096709        57.0543 
 429   0.0000       2.106608        57.3237 
 430   0.0000       2.107750        57.3548 
 431   0.0000       2.116763        57.6000 
 432   0.0000       2.118791        57.6552 
 433   0.0000       2.120842        57.7110 
 434   0.0000       2.134231        58.0754 
 435   0.0000       2.142083        58.2890 
 436   0.0000       2.144673        58.3595 
 437   0.0000       2.147946        58.4486 
 438   0.0000       2.152733        58.5789 
 439   0.0000       2.161136        58.8075 
 440   0.0000       2.177083        59.2414 
 441   0.0000       2.182089        59.3777 
 442   0.0000       2.192987        59.6742 
 443   0.0000       2.193149        59.6786 
 444   0.0000       2.197285        59.7912 
 445   0.0000       2.197934        59.8088 
 446   0.0000       2.211952        60.1903 
 447   0.0000       2.220340        60.4185 
 448   0.0000       2.231251        60.7154 
 449   0.0000       2.240598        60.9698 
 450   0.0000       2.250015        61.2260 
 451   0.0000       2.265374        61.6440 
 452   0.0000       2.272542        61.8390 
 453   0.0000       2.273243        61.8581 
 454   0.0000       2.282179        62.1012 
 455   0.0000       2.282609        62.1129 
 456   0.0000       2.306473        62.7623 
 457   0.0000       2.308874        62.8277 
 458   0.0000       2.318540        63.0907 
 459   0.0000       2.327258        63.3279 
 460   0.0000       2.334709        63.5307 
 461   0.0000       2.336021        63.5664 
 462   0.0000       2.346044        63.8391 
 463   0.0000       2.366352        64.3917 
 464   0.0000       2.371259        64.5252 
 465   0.0000       2.381172        64.7950 
 466   0.0000       2.399644        65.2976 
 467   0.0000       2.406789        65.4921 
 468   0.0000       2.432810        66.2001 
 469   0.0000       2.435604        66.2762 
 470   0.0000       2.439598        66.3848 
 471   0.0000       2.446856        66.5823 
 472   0.0000       2.448972        66.6399 
 473   0.0000       2.450726        66.6876 
 474   0.0000       2.457551        66.8734 
 475   0.0000       2.463501        67.0353 
 476   0.0000       2.475094        67.3507 
 477   0.0000       2.482017        67.5391 
 478   0.0000       2.496777        67.9407 
 479   0.0000       2.500639        68.0459 
 480   0.0000       2.509439        68.2853 
 481   0.0000       2.513879        68.4061 
 482   0.0000       2.524823        68.7039 
 483   0.0000       2.532343        68.9085 
 484   0.0000       2.538035        69.0634 
 485   0.0000       2.549785        69.3832 
 486   0.0000       2.568665        69.8969 
 487   0.0000       2.574245        70.0488 
 488   0.0000       2.580741        70.2255 
 489   0.0000       2.581873        70.2563 
 490   0.0000       2.595226        70.6197 
 491   0.0000       2.598092        70.6977 
 492   0.0000       2.604833        70.8811 
 493   0.0000       2.617828        71.2347 
 494   0.0000       2.625788        71.4513 
 495   0.0000       2.633084        71.6498 
 496   0.0000       2.638962        71.8098 
 497   0.0000       2.639936        71.8363 
 498   0.0000       2.670861        72.6778 
 499   0.0000       2.687956        73.1430 
 500   0.0000       2.705347        73.6162 
 501   0.0000       2.707306        73.6695 
 502   0.0000       2.721969        74.0685 
 503   0.0000       2.734238        74.4024 
 504   0.0000       2.741300        74.5946 
 505   0.0000       2.759679        75.0947 
 506   0.0000       2.775064        75.5133 
 507   0.0000       2.775367        75.5216 
 508   0.0000       2.794716        76.0481 
 509   0.0000       2.803027        76.2742 
 510   0.0000       2.803408        76.2846 
 511   0.0000       2.825526        76.8865 
 512   0.0000       2.830757        77.0288 
 513   0.0000       2.835228        77.1505 
 514   0.0000       2.850841        77.5753 
 515   0.0000       2.861133        77.8554 
 516   0.0000       2.867850        78.0382 
 517   0.0000       2.872287        78.1589 
 518   0.0000       2.874628        78.2226 
 519   0.0000       2.880381        78.3792 
 520   0.0000       2.880796        78.3904 
 521   0.0000       2.899326        78.8947 
 522   0.0000       2.907050        79.1049 
 523   0.0000       2.908424        79.1422 
 524   0.0000       2.928516        79.6890 
 525   0.0000       2.929234        79.7085 
 526   0.0000       2.933924        79.8361 
 527   0.0000       2.936646        79.9102 
 528   0.0000       2.937841        79.9427 
 529   0.0000       2.953697        80.3742 
 530   0.0000       2.957025        80.4647 
 531   0.0000       2.964736        80.6746 
 532   0.0000       2.967466        80.7489 
 533   0.0000       2.974602        80.9430 
 534   0.0000       2.978863        81.0590 
 535   0.0000       2.999156        81.6112 
 536   0.0000       2.999527        81.6213 
 537   0.0000       3.012689        81.9794 
 538   0.0000       3.014139        82.0189 
 539   0.0000       3.027848        82.3919 
 540   0.0000       3.031185        82.4827 
 541   0.0000       3.041431        82.7616 
 542   0.0000       3.047054        82.9146 
 543   0.0000       3.054214        83.1094 
 544   0.0000       3.065085        83.4052 
 545   0.0000       3.071863        83.5896 
 546   0.0000       3.083915        83.9176 
 547   0.0000       3.102309        84.4181 
 548   0.0000       3.122154        84.9581 
 549   0.0000       3.130141        85.1755 
 550   0.0000       3.132337        85.2352 
 551   0.0000       3.139937        85.4420 
 552   0.0000       3.149624        85.7056 
 553   0.0000       3.168921        86.2307 
 554   0.0000       3.173296        86.3498 
 555   0.0000       3.173582        86.3576 
 556   0.0000       3.228191        87.8435 
 557   0.0000       3.234453        88.0139 
 558   0.0000       3.250650        88.4547 
 559   0.0000       3.257923        88.6526 
 560   0.0000       3.269789        88.9755 
 561   0.0000       3.293587        89.6231 
 562   0.0000       3.345020        91.0226 
 563   0.0000       3.349527        91.1453 
 564   0.0000       3.423323        93.1533 
 565   0.0000       3.437409        93.5367 
 566   0.0000       3.445825        93.7657 
 567   0.0000       3.458381        94.1073 
 568   0.0000       3.479899        94.6929 
 569   0.0000       3.484361        94.8143 
 570   0.0000       3.515010        95.6483 
 571   0.0000       3.522971        95.8649 
 572   0.0000       3.557216        96.7968 
 573   0.0000       3.566603        97.0522 
 574   0.0000       3.582275        97.4787 
 575   0.0000       3.582618        97.4880 
 576   0.0000       3.610472        98.2459 
 577   0.0000       3.610603        98.2495 
 578   0.0000       3.616657        98.4142 
 579   0.0000       3.620717        98.5247 
 580   0.0000       3.626020        98.6690 
 581   0.0000       3.632013        98.8321 
 582   0.0000       3.637428        98.9794 
 583   0.0000       3.641391        99.0873 
 584   0.0000      19.826016       539.4933 
 585   0.0000      19.827127       539.5235 
 586   0.0000      20.060275       545.8678 
 587   0.0000      20.066865       546.0472 
 588   0.0000      31.601936       859.9324 
 589   0.0000      31.633344       860.7870 
 590   0.0000      31.652855       861.3180 
 591   0.0000      31.686276       862.2274 
 592   0.0000      43.261144      1177.1956 
 593   0.0000      43.266002      1177.3278 
 594   0.0000      43.356997      1179.8039 
 595   0.0000      43.364836      1180.0172 
 596   0.0000      43.382171      1180.4889 
 597   0.0000      43.393961      1180.8097 
 598   0.0000      43.421627      1181.5625 
 599   0.0000      43.433816      1181.8942 
 600   0.0000      43.461855      1182.6572 
 601   0.0000      43.508464      1183.9255 
 602   0.0000      43.529104      1184.4871 
 603   0.0000      43.533981      1184.6198 
 604   0.0000      43.564190      1185.4419 
 605   0.0000      43.568073      1185.5475 
 606   0.0000      43.639770      1187.4985 
 607   0.0000      43.699447      1189.1224 

                    ********************************
                    * MULLIKEN POPULATION ANALYSIS *
                    ********************************

-----------------------
MULLIKEN ATOMIC CHARGES
-----------------------
   0 S :    1.193371
   1 O :   -0.572135
   2 O :   -0.570450
   3 O :   -0.678468
   4 O :   -0.620827
   5 H :    0.457827
   6 S :    1.193369
   7 O :   -0.570401
   8 O :   -0.572166
   9 O :   -0.678468
  10 O :   -0.620786
  11 H :    0.457815
  12 S :    1.241533
  13 O :   -0.635118
  14 O :   -0.656741
  15 O :   -0.645202
  16 O :   -0.583015
  17 H :    0.444035
  18 S :    1.241495
  19 O :   -0.656678
  20 O :   -0.635089
  21 O :   -0.645256
  22 O :   -0.583010
  23 H :    0.444033
  24 N :   -0.779278
  25 H :    0.366771
  26 H :    0.395108
  27 H :    0.397673
  28 H :    0.400816
  29 N :   -0.818681
  30 H :    0.389072
  31 H :    0.453386
  32 H :    0.407230
  33 H :    0.413056
  34 N :   -0.818986
  35 H :    0.389138
  36 H :    0.413191
  37 H :    0.407284
  38 H :    0.453460
  39 N :   -0.779245
  40 H :    0.366767
  41 H :    0.395105
  42 H :    0.400824
  43 H :    0.397636
Sum of atomic charges:   -0.0000000

--------------------------------
MULLIKEN REDUCED ORBITAL CHARGES
--------------------------------
  0 S s       :     5.096565  s :     5.096565
      pz      :     2.941588  p :     8.827899
      px      :     2.930134
      py      :     2.956177
      dz2     :     0.188214  d :     0.882164
      dxz     :     0.180635
      dyz     :     0.177889
      dx2y2   :     0.155999
      dxy     :     0.179427
  1 O s       :     3.834591  s :     3.834591
      pz      :     1.749352  p :     4.702175
      px      :     1.674602
      py      :     1.278221
      dz2     :     0.006630  d :     0.035369
      dxz     :     0.005146
      dyz     :     0.007433
      dx2y2   :     0.008247
      dxy     :     0.007913
  2 O s       :     3.856997  s :     3.856997
      pz      :     1.329847  p :     4.674515
      px      :     1.682387
      py      :     1.662281
      dz2     :     0.012804  d :     0.038938
      dxz     :     0.008229
      dyz     :     0.009441
      dx2y2   :     0.003593
      dxy     :     0.004872
  3 O s       :     3.873536  s :     3.873536
      pz      :     1.524306  p :     4.744193
      px      :     1.470865
      py      :     1.749022
      dz2     :     0.009967  d :     0.060739
      dxz     :     0.014584
      dyz     :     0.011308
      dx2y2   :     0.013098
      dxy     :     0.011782
  4 O s       :     3.822375  s :     3.822375
      pz      :     1.661073  p :     4.740358
      px      :     1.360757
      py      :     1.718528
      dz2     :     0.009187  d :     0.058094
      dxz     :     0.021858
      dyz     :     0.011377
      dx2y2   :     0.007573
      dxy     :     0.008098
  5 H s       :     0.542173  s :     0.542173
  6 S s       :     5.096693  s :     5.096693
      pz      :     2.941588  p :     8.827925
      px      :     2.930148
      py      :     2.956188
      dz2     :     0.188184  d :     0.882013
      dxz     :     0.180607
      dyz     :     0.177853
      dx2y2   :     0.155971
      dxy     :     0.179399
  7 O s       :     3.857005  s :     3.857005
      pz      :     1.329701  p :     4.674478
      px      :     1.682437
      py      :     1.662340
      dz2     :     0.012800  d :     0.038917
      dxz     :     0.008224
      dyz     :     0.009438
      dx2y2   :     0.003586
      dxy     :     0.004869
  8 O s       :     3.834630  s :     3.834630
      pz      :     1.749363  p :     4.702162
      px      :     1.674619
      py      :     1.278179
      dz2     :     0.006632  d :     0.035374
      dxz     :     0.005146
      dyz     :     0.007431
      dx2y2   :     0.008248
      dxy     :     0.007916
  9 O s       :     3.873536  s :     3.873536
      pz      :     1.524338  p :     4.744190
      px      :     1.470832
      py      :     1.749021
      dz2     :     0.009960  d :     0.060741
      dxz     :     0.014590
      dyz     :     0.011307
      dx2y2   :     0.013100
      dxy     :     0.011785
 10 O s       :     3.822390  s :     3.822390
      pz      :     1.661085  p :     4.740301
      px      :     1.360690
      py      :     1.718525
      dz2     :     0.009185  d :     0.058094
      dxz     :     0.021858
      dyz     :     0.011378
      dx2y2   :     0.007575
      dxy     :     0.008098
 11 H s       :     0.542185  s :     0.542185
 12 S s       :     5.034237  s :     5.034237
      pz      :     2.928924  p :     8.842706
      px      :     2.960057
      py      :     2.953724
      dz2     :     0.198245  d :     0.881523
      dxz     :     0.148843
      dyz     :     0.191965
      dx2y2   :     0.182041
      dxy     :     0.160429
 13 O s       :     3.837197  s :     3.837197
      pz      :     1.753814  p :     4.756177
      px      :     1.612282
      py      :     1.390080
      dz2     :     0.004942  d :     0.041744
      dxz     :     0.005235
      dyz     :     0.008883
      dx2y2   :     0.007429
      dxy     :     0.015254
 14 O s       :     3.869275  s :     3.869275
      pz      :     1.257677  p :     4.739861
      px      :     1.745438
      py      :     1.736746
      dz2     :     0.017490  d :     0.047604
      dxz     :     0.002846
      dyz     :     0.013064
      dx2y2   :     0.009566
      dxy     :     0.004638
 15 O s       :     3.881306  s :     3.881306
      pz      :     1.569525  p :     4.712945
      px      :     1.667642
      py      :     1.475778
      dz2     :     0.005854  d :     0.050950
      dxz     :     0.008003
      dyz     :     0.014740
      dx2y2   :     0.010023
      dxy     :     0.012330
 16 O s       :     3.812657  s :     3.812657
      pz      :     1.743636  p :     4.724831
      px      :     1.365825
      py      :     1.615369
      dz2     :     0.007775  d :     0.045526
      dxz     :     0.010842
      dyz     :     0.009174
      dx2y2   :     0.010024
      dxy     :     0.007713
 17 H s       :     0.555965  s :     0.555965
 18 S s       :     5.034219  s :     5.034219
      pz      :     2.928926  p :     8.842762
      px      :     2.960074
      py      :     2.953762
      dz2     :     0.198241  d :     0.881523
      dxz     :     0.148845
      dyz     :     0.191967
      dx2y2   :     0.182040
      dxy     :     0.160430
 19 O s       :     3.869293  s :     3.869293
      pz      :     1.257674  p :     4.739797
      px      :     1.745417
      py      :     1.736707
      dz2     :     0.017486  d :     0.047588
      dxz     :     0.002848
      dyz     :     0.013058
      dx2y2   :     0.009565
      dxy     :     0.004631
 20 O s       :     3.837196  s :     3.837196
      pz      :     1.753817  p :     4.756157
      px      :     1.612267
      py      :     1.390074
      dz2     :     0.004939  d :     0.041736
      dxz     :     0.005236
      dyz     :     0.008885
      dx2y2   :     0.007423
      dxy     :     0.015253
 21 O s       :     3.881324  s :     3.881324
      pz      :     1.569554  p :     4.712970
      px      :     1.667647
      py      :     1.475768
      dz2     :     0.005861  d :     0.050962
      dxz     :     0.008007
      dyz     :     0.014740
      dx2y2   :     0.010021
      dxy     :     0.012333
 22 O s       :     3.812655  s :     3.812655
      pz      :     1.743627  p :     4.724832
      px      :     1.365826
      py      :     1.615379
      dz2     :     0.007774  d :     0.045523
      dxz     :     0.010841
      dyz     :     0.009173
      dx2y2   :     0.010022
      dxy     :     0.007712
 23 H s       :     0.555967  s :     0.555967
 24 N s       :     3.521247  s :     3.521247
      pz      :     1.360208  p :     4.229660
      px      :     1.403801
      py      :     1.465651
      dz2     :     0.006997  d :     0.028372
      dxz     :     0.003111
      dyz     :     0.006766
      dx2y2   :     0.007268
      dxy     :     0.004229
 25 H s       :     0.633229  s :     0.633229
 26 H s       :     0.604892  s :     0.604892
 27 H s       :     0.602327  s :     0.602327
 28 H s       :     0.599184  s :     0.599184
 29 N s       :     3.526168  s :     3.526168
      pz      :     1.398178  p :     4.261304
      px      :     1.399965
      py      :     1.463161
      dz2     :     0.008619  d :     0.031209
      dxz     :     0.007521
      dyz     :     0.001459
      dx2y2   :     0.006580
      dxy     :     0.007030
 30 H s       :     0.610928  s :     0.610928
 31 H s       :     0.546614  s :     0.546614
 32 H s       :     0.592770  s :     0.592770
 33 H s       :     0.586944  s :     0.586944
 34 N s       :     3.526171  s :     3.526171
      pz      :     1.398215  p :     4.261601
      px      :     1.400129
      py      :     1.463256
      dz2     :     0.008617  d :     0.031214
      dxz     :     0.007529
      dyz     :     0.001457
      dx2y2   :     0.006571
      dxy     :     0.007040
 35 H s       :     0.610862  s :     0.610862
 36 H s       :     0.586809  s :     0.586809
 37 H s       :     0.592716  s :     0.592716
 38 H s       :     0.546540  s :     0.546540
 39 N s       :     3.521238  s :     3.521238
      pz      :     1.360204  p :     4.229635
      px      :     1.403788
      py      :     1.465643
      dz2     :     0.006997  d :     0.028372
      dxz     :     0.003111
      dyz     :     0.006766
      dx2y2   :     0.007269
      dxy     :     0.004228
 40 H s       :     0.633233  s :     0.633233
 41 H s       :     0.604895  s :     0.604895
 42 H s       :     0.599176  s :     0.599176
 43 H s       :     0.602364  s :     0.602364


                     *******************************
                     * LOEWDIN POPULATION ANALYSIS *
                     *******************************

----------------------
LOEWDIN ATOMIC CHARGES
----------------------
   0 S :    1.868928
   1 O :   -0.776073
   2 O :   -0.786526
   3 O :   -0.853508
   4 O :   -0.680272
   5 H :    0.368623
   6 S :    1.869021
   7 O :   -0.786541
   8 O :   -0.776103
   9 O :   -0.853574
  10 O :   -0.680280
  11 H :    0.368632
  12 S :    1.888107
  13 O :   -0.866266
  14 O :   -0.869996
  15 O :   -0.810256
  16 O :   -0.692187
  17 H :    0.380859
  18 S :    1.888101
  19 O :   -0.869938
  20 O :   -0.866267
  21 O :   -0.810262
  22 O :   -0.692191
  23 H :    0.380857
  24 N :   -0.418118
  25 H :    0.296717
  26 H :    0.328358
  27 H :    0.339022
  28 H :    0.342979
  29 N :   -0.380010
  30 H :    0.311017
  31 H :    0.346238
  32 H :    0.333525
  33 H :    0.328866
  34 N :   -0.379912
  35 H :    0.310963
  36 H :    0.328809
  37 H :    0.333427
  38 H :    0.346272
  39 N :   -0.418119
  40 H :    0.296719
  41 H :    0.328361
  42 H :    0.342978
  43 H :    0.339020

-------------------------------
LOEWDIN REDUCED ORBITAL CHARGES
-------------------------------
  0 S s       :     4.620011  s :     4.620011
      pz      :     2.843090  p :     8.482192
      px      :     2.808593
      py      :     2.830509
      dz2     :     0.221070  d :     1.028869
      dxz     :     0.217173
      dyz     :     0.196761
      dx2y2   :     0.182134
      dxy     :     0.211730
  1 O s       :     3.643797  s :     3.643797
      pz      :     1.703562  p :     4.796057
      px      :     1.661891
      py      :     1.430604
      dz2     :     0.041084  d :     0.336219
      dxz     :     0.038109
      dyz     :     0.089965
      dx2y2   :     0.082272
      dxy     :     0.084789
  2 O s       :     3.668047  s :     3.668047
      pz      :     1.479087  p :     4.809918
      px      :     1.661427
      py      :     1.669404
      dz2     :     0.086268  d :     0.308561
      dxz     :     0.073177
      dyz     :     0.062430
      dx2y2   :     0.051164
      dxy     :     0.035523
  3 O s       :     3.656669  s :     3.656669
      pz      :     1.587664  p :     4.827796
      px      :     1.536868
      py      :     1.703263
      dz2     :     0.076648  d :     0.369043
      dxz     :     0.086928
      dyz     :     0.060826
      dx2y2   :     0.073715
      dxy     :     0.070926
  4 O s       :     3.616341  s :     3.616341
      pz      :     1.652287  p :     4.788124
      px      :     1.411380
      py      :     1.724457
      dz2     :     0.043177  d :     0.275807
      dxz     :     0.078249
      dyz     :     0.033846
      dx2y2   :     0.071551
      dxy     :     0.048985
  5 H s       :     0.631377  s :     0.631377
  6 S s       :     4.620070  s :     4.620070
      pz      :     2.843093  p :     8.482213
[...]
      dz2     :     0.076638  d :     0.369059
      dxz     :     0.086944
      dyz     :     0.060812
      dx2y2   :     0.073739
      dxy     :     0.070926
 10 O s       :     3.616375  s :     3.616375
      pz      :     1.652306  p :     4.788091
      px      :     1.411326
      py      :     1.724459
      dz2     :     0.043183  d :     0.275814
      dxz     :     0.078241
      dyz     :     0.033847
      dx2y2   :     0.071559
      dxy     :     0.048985
 11 H s       :     0.631368  s :     0.631368
 12 S s       :     4.612578  s :     4.612578
      pz      :     2.834742  p :     8.471013
      px      :     2.803788
      py      :     2.832482
      dz2     :     0.237901  d :     1.028302
      dxz     :     0.165853
      dyz     :     0.221593
      dx2y2   :     0.212881
      dxy     :     0.190075
 13 O s       :     3.643175  s :     3.643175
      pz      :     1.710254  p :     4.819116
      px      :     1.612224
      py      :     1.496638
      dz2     :     0.058674  d :     0.403976
      dxz     :     0.054121
      dyz     :     0.074290
      dx2y2   :     0.118044
      dxy     :     0.098846
 14 O s       :     3.656818  s :     3.656818
      pz      :     1.431889  p :     4.830920
      px      :     1.706993
      py      :     1.692038
      dz2     :     0.097349  d :     0.382259
      dxz     :     0.074255
      dyz     :     0.106371
      dx2y2   :     0.050078
      dxy     :     0.054205
 15 O s       :     3.658057  s :     3.658057
      pz      :     1.615818  p :     4.816061
      px      :     1.646677
      py      :     1.553566
      dz2     :     0.070835  d :     0.336138
      dxz     :     0.053132
      dyz     :     0.071369
      dx2y2   :     0.068622
      dxy     :     0.072179
 16 O s       :     3.601532  s :     3.601532
      pz      :     1.727916  p :     4.779443
      px      :     1.445451
      py      :     1.606076
      dz2     :     0.046803  d :     0.311213
      dxz     :     0.063310
      dyz     :     0.054549
      dx2y2   :     0.069647
      dxy     :     0.076904
 17 H s       :     0.619141  s :     0.619141
 18 S s       :     4.612578  s :     4.612578
      pz      :     2.834745  p :     8.471018
      px      :     2.803790
      py      :     2.832484
      dz2     :     0.237896  d :     1.028302
      dxz     :     0.165855
      dyz     :     0.221595
      dx2y2   :     0.212880
      dxy     :     0.190077
 19 O s       :     3.656825  s :     3.656825
      pz      :     1.431886  p :     4.830902
      px      :     1.706983
      py      :     1.692034
      dz2     :     0.097339  d :     0.382211
      dxz     :     0.074254
      dyz     :     0.106366
      dx2y2   :     0.050065
      dxy     :     0.054186
 20 O s       :     3.643176  s :     3.643176
      pz      :     1.710256  p :     4.819109
      px      :     1.612216
      py      :     1.496636
      dz2     :     0.058675  d :     0.403983
      dxz     :     0.054122
      dyz     :     0.074292
      dx2y2   :     0.118044
      dxy     :     0.098851
 21 O s       :     3.658053  s :     3.658053
      pz      :     1.615822  p :     4.816077
      px      :     1.646683
      py      :     1.553572
      dz2     :     0.070837  d :     0.336132
      dxz     :     0.053132
      dyz     :     0.071370
      dx2y2   :     0.068620
      dxy     :     0.072173
 22 O s       :     3.601532  s :     3.601532
      pz      :     1.727908  p :     4.779445
      px      :     1.445451
      py      :     1.606086
      dz2     :     0.046803  d :     0.311215
      dxz     :     0.063310
      dyz     :     0.054553
      dx2y2   :     0.069645
      dxy     :     0.076903
 23 H s       :     0.619143  s :     0.619143
 24 N s       :     3.242047  s :     3.242047
      pz      :     1.346864  p :     4.139034
      px      :     1.376145
      py      :     1.416025
      dz2     :     0.009126  d :     0.037037
      dxz     :     0.004289
      dyz     :     0.008880
      dx2y2   :     0.009211
      dxy     :     0.005530
 25 H s       :     0.703283  s :     0.703283
 26 H s       :     0.671642  s :     0.671642
 27 H s       :     0.660978  s :     0.660978
 28 H s       :     0.657021  s :     0.657021
 29 N s       :     3.235558  s :     3.235558
      pz      :     1.358657  p :     4.103606
      px      :     1.341341
      py      :     1.403608
      dz2     :     0.010801  d :     0.040846
      dxz     :     0.010216
      dyz     :     0.001922
      dx2y2   :     0.008411
      dxy     :     0.009496
 30 H s       :     0.688983  s :     0.688983
 31 H s       :     0.653762  s :     0.653762
 32 H s       :     0.666475  s :     0.666475
 33 H s       :     0.671134  s :     0.671134
 34 N s       :     3.235290  s :     3.235290
      pz      :     1.358689  p :     4.103770
      px      :     1.341432
      py      :     1.403649
      dz2     :     0.010799  d :     0.040852
      dxz     :     0.010227
      dyz     :     0.001919
      dx2y2   :     0.008399
      dxy     :     0.009508
 35 H s       :     0.689037  s :     0.689037
 36 H s       :     0.671191  s :     0.671191
 37 H s       :     0.666573  s :     0.666573
 38 H s       :     0.653728  s :     0.653728
 39 N s       :     3.242064  s :     3.242064
      pz      :     1.346861  p :     4.139019
      px      :     1.376136
      py      :     1.416023
      dz2     :     0.009126  d :     0.037036
      dxz     :     0.004290
      dyz     :     0.008880
      dx2y2   :     0.009213
      dxy     :     0.005529
 40 H s       :     0.703281  s :     0.703281
 41 H s       :     0.671639  s :     0.671639
 42 H s       :     0.657022  s :     0.657022
 43 H s       :     0.660980  s :     0.660980


                      *****************************
                      * MAYER POPULATION ANALYSIS *
                      *****************************

  NA   - Mulliken gross atomic population
  ZA   - Total nuclear charge
  QA   - Mulliken gross atomic charge
  VA   - Mayer's total valence
  BVA  - Mayer's bonded valence
  FA   - Mayer's free valence

  ATOM       NA         ZA         QA         VA         BVA        FA
  0 S     14.8066    16.0000     1.1934     5.6868     5.6868    -0.0000
  1 O      8.5721     8.0000    -0.5721     1.7817     1.7817    -0.0000
  2 O      8.5704     8.0000    -0.5704     1.8563     1.8563     0.0000
  3 O      8.6785     8.0000    -0.6785     1.8433     1.8433    -0.0000
  4 O      8.6208     8.0000    -0.6208     1.9373     1.9373     0.0000
  5 H      0.5422     1.0000     0.4578     0.7771     0.7771    -0.0000
  6 S     14.8066    16.0000     1.1934     5.6866     5.6866    -0.0000
  7 O      8.5704     8.0000    -0.5704     1.8562     1.8562    -0.0000
  8 O      8.5722     8.0000    -0.5722     1.7816     1.7816    -0.0000
  9 O      8.6785     8.0000    -0.6785     1.8432     1.8432    -0.0000
 10 O      8.6208     8.0000    -0.6208     1.9373     1.9373     0.0000
 11 H      0.5422     1.0000     0.4578     0.7771     0.7771     0.0000
 12 S     14.7585    16.0000     1.2415     5.6042     5.6042    -0.0000
 13 O      8.6351     8.0000    -0.6351     1.7802     1.7802    -0.0000
 14 O      8.6567     8.0000    -0.6567     1.7686     1.7686     0.0000
 15 O      8.6452     8.0000    -0.6452     1.8940     1.8940    -0.0000
 16 O      8.5830     8.0000    -0.5830     1.9033     1.9033    -0.0000
 17 H      0.5560     1.0000     0.4440     0.8252     0.8252     0.0000
 18 S     14.7585    16.0000     1.2415     5.6042     5.6042    -0.0000
 19 O      8.6567     8.0000    -0.6567     1.7686     1.7686    -0.0000
 20 O      8.6351     8.0000    -0.6351     1.7802     1.7802    -0.0000
 21 O      8.6453     8.0000    -0.6453     1.8940     1.8940    -0.0000
 22 O      8.5830     8.0000    -0.5830     1.9033     1.9033     0.0000
 23 H      0.5560     1.0000     0.4440     0.8252     0.8252    -0.0000
 24 N      7.7793     7.0000    -0.7793     2.9678     2.9678     0.0000
 25 H      0.6332     1.0000     0.3668     0.8465     0.8465     0.0000
 26 H      0.6049     1.0000     0.3951     0.8589     0.8589     0.0000
 27 H      0.6023     1.0000     0.3977     0.8661     0.8661     0.0000
 28 H      0.5992     1.0000     0.4008     0.8684     0.8684     0.0000
 29 N      7.8187     7.0000    -0.8187     3.0772     3.0772     0.0000
 30 H      0.6109     1.0000     0.3891     0.8463     0.8463     0.0000
 31 H      0.5466     1.0000     0.4534     0.8099     0.8099     0.0000
 32 H      0.5928     1.0000     0.4072     0.8579     0.8579    -0.0000
 33 H      0.5869     1.0000     0.4131     0.8418     0.8418     0.0000
 34 N      7.8190     7.0000    -0.8190     3.0769     3.0769    -0.0000
 35 H      0.6109     1.0000     0.3891     0.8463     0.8463    -0.0000
 36 H      0.5868     1.0000     0.4132     0.8417     0.8417    -0.0000
 37 H      0.5927     1.0000     0.4073     0.8578     0.8578    -0.0000
 38 H      0.5465     1.0000     0.4535     0.8098     0.8098    -0.0000
 39 N      7.7792     7.0000    -0.7792     2.9678     2.9678     0.0000
 40 H      0.6332     1.0000     0.3668     0.8465     0.8465     0.0000
 41 H      0.6049     1.0000     0.3951     0.8589     0.8589     0.0000
 42 H      0.5992     1.0000     0.4008     0.8683     0.8683    -0.0000
 43 H      0.6024     1.0000     0.3976     0.8661     0.8661     0.0000

  Mayer bond orders larger than 0.100000
B(  0-S ,  1-O ) :   1.5221 B(  0-S ,  2-O ) :   1.6198 B(  0-S ,  3-O ) :   1.4433 
B(  0-S ,  4-O ) :   1.0788 B(  1-O , 17-H ) :   0.1216 B(  3-O , 27-H ) :   0.1616 
B(  4-O ,  5-H ) :   0.7306 B(  6-S ,  7-O ) :   1.6197 B(  6-S ,  8-O ) :   1.5220 
B(  6-S ,  9-O ) :   1.4432 B(  6-S , 10-O ) :   1.0788 B(  8-O , 23-H ) :   0.1216 
B(  9-O , 43-H ) :   0.1616 B( 10-O , 11-H ) :   0.7306 B( 12-S , 13-O ) :   1.4638 
B( 12-S , 14-O ) :   1.4024 B( 12-S , 15-O ) :   1.5541 B( 12-S , 16-O ) :   1.1528 
B( 14-O , 28-H ) :   0.1638 B( 16-O , 17-H ) :   0.6451 B( 18-S , 19-O ) :   1.4025 
B( 18-S , 20-O ) :   1.4638 B( 18-S , 21-O ) :   1.5540 B( 18-S , 22-O ) :   1.1528 
B( 19-O , 42-H ) :   0.1638 B( 22-O , 23-H ) :   0.6451 B( 24-N , 25-H ) :   0.8472 
B( 24-N , 26-H ) :   0.7516 B( 24-N , 27-H ) :   0.6849 B( 24-N , 28-H ) :   0.6860 
B( 29-N , 30-H ) :   0.8105 B( 29-N , 31-H ) :   0.7320 B( 29-N , 32-H ) :   0.7617 
B( 29-N , 33-H ) :   0.7304 B( 34-N , 35-H ) :   0.8106 B( 34-N , 36-H ) :   0.7302 
B( 34-N , 37-H ) :   0.7616 B( 34-N , 38-H ) :   0.7319 B( 39-N , 40-H ) :   0.8472 
B( 39-N , 41-H ) :   0.7516 B( 39-N , 42-H ) :   0.6860 B( 39-N , 43-H ) :   0.6850 


-------
TIMINGS
-------

Total SCF time: 0 days 0 hours 3 min 4 sec 

Total time                  ....     184.603 sec
Sum of individual times     ....     182.464 sec  ( 98.8%)

Fock matrix formation       ....     172.247 sec  ( 93.3%)
  Split-RI-J                ....      50.002 sec  ( 29.0% of F)
  XC integration            ....     122.164 sec  ( 70.9% of F)
    Basis function eval.    ....      25.127 sec  ( 20.6% of XC)
    Density eval.           ....      56.873 sec  ( 46.6% of XC)
    XC-Functional eval.     ....       4.119 sec  (  3.4% of XC)
    XC-Potential eval.      ....      32.588 sec  ( 26.7% of XC)
Diagonalization             ....       2.061 sec  (  1.1%)
Density matrix formation    ....       0.158 sec  (  0.1%)
Population analysis         ....       0.201 sec  (  0.1%)
Initial guess               ....       0.316 sec  (  0.2%)
Orbital Transformation      ....       0.000 sec  (  0.0%)
Orbital Orthonormalization  ....       0.000 sec  (  0.0%)
DIIS solution               ....       0.815 sec  (  0.4%)
SOSCF solution              ....       1.959 sec  (  1.1%)
Grid generation             ....       4.706 sec  (  2.5%)

Maximum memory used throughout the entire SCF-calculation: 289.7 MB


-------------------------------------------------------------------------------
                          DFT DISPERSION CORRECTION                            
                                                                               
                              DFTD3 V3.1  Rev 1                                
                          USING Becke-Johnson damping                          
-------------------------------------------------------------------------------
The B97-3c composite method is recognized
Using three-body term ABC
Active option DFTDOPT                   ...         4   

molecular C6(AA) [au] = 22560.422687 


            DFT-D V3
 parameters
 s6 scaling factor         :     1.0000 
 a1 scaling factor         :     0.3700 
 s8 scaling factor         :     1.5000 
 a2 scaling factor         :     4.1000 
 Damping factor alpha9(ATM):    16.0000 
 ad hoc parameters k1-k3   :    16.0000     1.3333    -4.0000 

 Edisp/kcal,au: -82.844921179263  -0.132021771410 
 E6   /kcal   : -43.645929807 
 E8   /kcal   : -39.906145965 
 E6(ABC)      :   0.707154593 
 % E8         :  48.169695133 
 % E6(ABC)    :  -0.853588347 

-------------------------   ----------------
Dispersion correction           -0.132021771
-------------------------   ----------------

------------------   -----------------
SRB correction            -0.142322742
------------------   -----------------

-------------------------   --------------------
FINAL SINGLE POINT ENERGY     -3026.641624130376
-------------------------   --------------------

------------------------------------------------------------------------------
                         ORCA SCF GRADIENT CALCULATION
------------------------------------------------------------------------------

Gradient of the Kohn-Sham DFT energy:
Kohn-Sham wavefunction type      ... RKS
Hartree-Fock exchange scaling    ...    0.000
Number of operators              ...    1
Number of atoms                  ...   44
Basis set dimensions             ...  608
Integral neglect threshold       ... 2.5e-11
Integral primitive cutoff        ... 2.5e-12
SHARK Integral package           ... ON

Nuc. rep. gradient       (SHARK) ... done (  0.0 sec)
HCore & Overlap gradient (SHARK) ... done (  4.4 sec)
RI-J gradient            (SHARK) ... done ( 11.5 sec)
Exchange-correlation gradient    ... done
Dispersion correction            ... done
SRB correction                   ... done

------------------
CARTESIAN GRADIENT
------------------

   1   S   :   -0.011358684    0.006210127   -0.003692617
   2   O   :   -0.019859531   -0.042430852    0.002888158
   3   O   :    0.008312285    0.018550052   -0.041014229
   4   O   :    0.022490192    0.010176001    0.031964778
   5   O   :   -0.010434820    0.012665243    0.014150203
   6   H   :   -0.002532603   -0.000570572   -0.003379348
   7   S   :    0.011305013   -0.006197638    0.003744004
   8   O   :   -0.008283036   -0.018501273    0.040907423
   9   O   :    0.019820849    0.042348899   -0.002896633
  10   O   :   -0.022430052   -0.010156830   -0.031911031
  11   O   :    0.010454810   -0.012665057   -0.014113060
  12   H   :    0.002505249    0.000570101    0.003351786
  13   S   :   -0.015490280    0.018148573    0.009290378
  14   O   :    0.015357260    0.030748553   -0.008002527
  15   O   :   -0.007101628   -0.010419617    0.033369543
  16   O   :    0.010605804   -0.034320759   -0.030258276
  17   O   :   -0.020584262   -0.002821033   -0.011578460
  18   H   :    0.001065022    0.002736886    0.001305913
  19   S   :    0.015491452   -0.018160735   -0.009302372
  20   O   :    0.007092429    0.010426962   -0.033365913
  21   O   :   -0.015354750   -0.030740383    0.008004351
  22   O   :   -0.010610178    0.034330484    0.030260143
  23   O   :    0.020584222    0.002821140    0.011581303
  24   H   :   -0.001066013   -0.002736398   -0.001306634
  25   N   :   -0.001710163   -0.000618595    0.002237058
  26   H   :   -0.000918026   -0.000825206    0.002576852
  27   H   :    0.001650657    0.001883938    0.001966043
  28   H   :    0.000233420    0.003655296    0.003036623
  29   H   :   -0.000718932   -0.005073802    0.001083396
  30   N   :   -0.001143285   -0.006339259    0.003279599
  31   H   :   -0.001459064    0.001334709   -0.000347438
  32   H   :    0.000226333    0.001830668    0.002268934
  33   H   :   -0.002168295    0.000108231    0.000555720
  34   H   :    0.002357175   -0.001239064    0.001527141
  35   N   :    0.001092554    0.006107064   -0.003304319
  36   H   :    0.001693641   -0.001297255    0.000161874
  37   H   :   -0.002599358    0.001426161   -0.001642687
  38   H   :    0.002236938   -0.000096325   -0.000227233
  39   H   :   -0.000220254   -0.001844034   -0.002268183
  40   N   :    0.001714408    0.000603980   -0.002247984
  41   H   :    0.000911795    0.000817975   -0.002558926
  42   H   :   -0.001636865   -0.001883281   -0.001967787
  43   H   :    0.000721913    0.005074132   -0.001080748
  44   H   :   -0.000243337   -0.003637209   -0.003044817

Difference to translation invariance:
           :   -0.0000000000   -0.0000000000    0.0000000000

Difference to rotation invariance:
           :   -0.0008049923    0.0005375461   -0.0013041407

Norm of the cartesian gradient     ...    0.1593505042
RMS gradient                       ...    0.0138696811
MAX gradient                       ...    0.0424308516

-------
TIMINGS
-------

Total SCF gradient time            ...       86.394 sec

One electron gradient       ....       4.396 sec  (  5.1%)
RI-J Coulomb gradient       ....      11.457 sec  ( 13.3%)
XC gradient                 ....      70.070 sec  ( 81.1%)

Maximum memory used throughout the entire SCFGRAD-calculation: 263.0 MB

                            ***************************************
                            *     ORCA property calculations      *
                            ***************************************

                                    ---------------------
                                    Active property flags
                                    ---------------------
   (+) Dipole Moment


------------------------------------------------------------------------------
                       ORCA ELECTRIC PROPERTIES CALCULATION
------------------------------------------------------------------------------

Dipole Moment Calculation                       ... on
Quadrupole Moment Calculation                   ... off
Polarizability Calculation                      ... off
GBWName                                         ... 4sa4am-44_10_0.gbw
Electron density                                ... 4sa4am-44_10_0.scfp
The origin for moment calculation is the CENTER OF MASS  = (-0.000006,  0.000000 -0.000006)

-------------
DIPOLE MOMENT
-------------
                                X             Y             Z
Electronic contribution:     -0.00028      -0.00003       0.00011
Nuclear contribution   :      0.00013      -0.00002       0.00014
                        -----------------------------------------
Total Dipole Moment    :     -0.00015      -0.00005       0.00026
                        -----------------------------------------
Magnitude (a.u.)       :      0.00030
Magnitude (Debye)      :      0.00077



--------------------
Rotational spectrum 
--------------------
 
Rotational constants in cm-1:     0.011040     0.003469     0.003056 
Rotational constants in MHz :   330.978599   103.996323    91.630298 

 Dipole components along the rotational axes: 
x,y,z [a.u.] :    -0.000102    -0.000030    -0.000285 
x,y,z [Debye]:    -0.000260    -0.000077    -0.000724 

 

Timings for individual modules:

Sum of individual times         ...      273.197 sec (=   4.553 min)
GTO integral calculation        ...        2.077 sec (=   0.035 min)   0.8 %
SCF iterations                  ...      184.666 sec (=   3.078 min)  67.6 %
SCF Gradient evaluation         ...       86.454 sec (=   1.441 min)  31.6 %
                             ****ORCA TERMINATED NORMALLY****
TOTAL RUN TIME: 0 days 0 hours 4 minutes 33 seconds 682 msec
