44
Properties=species:S:1:pos:R:3 energy:=T -113.452800191991=T gnorm:=T 0.000600483811=T xtb:=T 6.4.0=T (d4b70c2)=T pbc="F F F"
S       -1.76377630       0.04578274       0.99886252
O       -1.01474378       1.15595494       1.58096384
O       -1.13725117      -0.42649535      -0.24761919
O       -1.99150924      -1.02984077       1.94040695
O       -3.18524704       0.59731201       0.58744222
H       -3.05129261       1.24349373      -0.15532441
S       -1.48027087       2.94478014      -1.69715359
O       -2.57940475       1.97999401      -1.61508167
O       -1.07466400       3.47235394      -0.41788166
O       -0.37903721       2.44165107      -2.50333252
O       -2.04570516       4.19154789      -2.55433606
H       -2.57869502       4.74190308      -1.97002999
S        1.45611165      -1.37742830      -2.01251048
O        1.36956113      -0.07943716      -2.65031702
O        1.93340481      -1.29993990      -0.63843201
O        0.24896184      -2.17770468      -2.14349048
O        2.55606241      -2.22370068      -2.83708453
H        3.35905915      -1.69705814      -2.91766949
S        2.34800164      -0.86868711       2.62609530
O        1.24011559      -1.85078521       2.50947440
O        1.91287523       0.44116540       2.14003796
O        2.92950125      -0.84510265       3.93053558
O        3.47936804      -1.37869370       1.62404415
H        3.10059238      -1.39202872       0.72303974
N       -0.20624260      -2.83156458       0.52558223
H       -1.09325934      -2.48333783       0.88090811
H       -0.09186438      -2.54278705      -0.45446867
H        0.53142117      -2.37209262       1.09639060
H       -0.13009455      -3.83198303       0.61958310
N       -0.17825249       0.03600101       3.83278383
H       -0.43002580       0.61865000       3.00666618
H        0.10333512      -0.87086260       3.43162493
H        0.63619194       0.42688141       4.28848944
H       -0.97424004      -0.06380306       4.44305137
N       -1.34490796       0.00326448      -2.96509727
H       -0.80291630       0.88791233      -2.97741964
H       -0.83277355      -0.72891606      -3.44024023
H       -1.42581507      -0.24286601      -1.97147412
H       -2.26260506       0.17593053      -3.34728181
N        0.98847429       1.45709999      -0.25653055
H        1.59698548       1.21174817       0.52802602
H        1.49562837       1.59438758      -1.12233740
H        0.34835762       0.67231530      -0.38491769
H        0.42058517       2.27498544      -0.03397803
