72
 energy: -168.068348700308 gnorm: 0.000119172499 xtb: 6.4.0 (d4b70c2)
Na       -6.32478709425560   -6.32478709428654   -1.11092203985784
Cl       -6.48232495392817   -6.48232495391368    1.38173573734123
Cl       -6.65452737205194   -3.84623445566932   -1.46700369349898
Na       -6.51394771021941   -3.88293821680330    1.24282044854474
Na       -6.52932481894226   -1.26888958596247   -1.21557246007916
Cl       -6.68628296603005   -1.30532756736417    1.44035517235252
Cl       -6.68628296604469    1.30532756718057   -1.44035517235107
Na       -6.52932481891925    1.26888958615201    1.21557246007409
Na       -6.51394771017007    3.88293821692479   -1.24282044854194
Cl       -6.65452737210148    3.84623445549487    1.46700369351781
Cl       -6.48232495397856    6.48232495388292   -1.38173573734977
Na       -6.32478709416680    6.32478709437215    1.11092203984623
Cl       -3.84623445571695   -6.65452737203866   -1.46700369349730
Na       -3.88293821677352   -6.51394771023630    1.24282044854236
Na       -3.92837083613761   -3.92837083616839   -1.34916002270389
Cl       -3.90575096838582   -3.90575096834726    1.39102967635235
Cl       -3.93456045832730   -1.30522451386790   -1.46746745453901
Na       -3.96056477883446   -1.29853582429912    1.28998801549345
Na       -3.96056477881922    1.29853582453043   -1.28998801548902
Cl       -3.93456045835624    1.30522451363656    1.46746745454372
Cl       -3.90575096844446    3.90575096819123   -1.39102967636680
Na       -3.92837083609503    3.92837083630087    1.34916002269001
Na       -3.88293821672022    6.51394771028073   -1.24282044852676
Cl       -3.84623445581777    6.65452737201366    1.46700369350592
Na       -1.26888958593124   -6.52932481895243   -1.21557246007628
Cl       -1.30532756739148   -6.68628296602545    1.44035517235551
Cl       -1.30522451390618   -3.93456045829695   -1.46746745454179
Na       -1.29853582425924   -3.96056477885791    1.28998801549141
Na       -1.30400306902438   -1.30400306906233   -1.26817159375881
Cl       -1.31773735220683   -1.31773735216809    1.46792231963599
Cl       -1.31773735220557    1.31773735195315   -1.46792231964151
Na       -1.30400306901958    1.30400306927065    1.26817159375137
Na       -1.29853582425370    3.96056477897270   -1.28998801547565
Cl       -1.30522451390501    3.93456045815825    1.46746745456119
Cl       -1.30532756739072    6.68628296601376   -1.44035517237216
Na       -1.26888958591658    6.52932481898729    1.21557246005706
Cl        1.30532756716701   -6.68628296604574   -1.44035517235409
Na        1.26888958616450   -6.52932481892053    1.21557246007074
Na        1.29853582455648   -3.96056477883379   -1.28998801548550
Cl        1.30522451360926   -3.93456045833974    1.46746745454736
Cl        1.31773735191762   -1.31773735217080   -1.46792231964368
Na        1.30400306930392   -1.30400306905207    1.26817159374899
Na        1.30400306928284    1.30400306924411   -1.26817159374285
Cl        1.31773735193331    1.31773735197282    1.46792231964946
Cl        1.30522451366000    3.93456045820935   -1.46746745456478
Na        1.29853582450165    3.96056477894032    1.28998801547077
Na        1.26888958609313    6.52932481895516   -1.21557246005432
Cl        1.30532756722462    6.68628296603372    1.44035517237105
Na        3.88293821692363   -6.51394771016589   -1.24282044853928
Cl        3.84623445549907   -6.65452737210663    1.46700369351982
Cl        3.90575096818523   -3.90575096844052   -1.39102967637145
Na        3.92837083630885   -3.92837083610139    1.34916002268675
Na        3.96056477898855   -1.29853582427878   -1.28998801547201
Cl        3.93456045814000   -1.30522451387856    1.46746745456497
Cl        3.93456045817724    1.30522451369910   -1.46746745456772
Na        3.96056477896502    1.29853582446082    1.28998801546859
Na        3.92837083624134    3.92837083620894   -1.34916002267752
Cl        3.90575096827573    3.90575096831636    1.39102967638286
Cl        3.84623445564248    6.65452737208057   -1.46700369352177
Na        3.88293821683637    6.51394771020563    1.24282044852623
Cl        6.48232495388925   -6.48232495398589   -1.38173573735616
Na        6.32478709436614   -6.32478709415847    1.11092203984985
Na        6.51394771027764   -3.88293821671734   -1.24282044852390
Cl        6.65452737201792   -3.84623445582523    1.46700369350781
Cl        6.68628296601437   -1.30532756737791   -1.44035517237538
Na        6.52932481898935   -1.26888958592786    1.21557246005344
Na        6.52932481896612    1.26888958606066   -1.21557246005117
Cl        6.68628296602869    1.30532756725267    1.44035517237426
Cl        6.65452737206635    3.84623445569343   -1.46700369351995
Na        6.51394771022360    3.88293821680487    1.24282044852366
Na        6.32478709426561    6.32478709423232   -1.11092203985224
Cl        6.48232495394448    6.48232495395997    1.38173573736785
