22
Properties=species:S:1:pos:R:3 Free_Energy:=T -1513.340924=T Electronic_Energy:=T -1513.45885059=T pbc="F F F"
N       -0.38326300       2.54483900       0.71677600
H        0.58317400       2.27411200       0.41167300
H       -0.84066100       1.64174900       1.05269900
H       -0.36490500       3.25877900       1.43878200
H       -0.91211200       2.86436400      -0.09403500
N       -0.08989200      -2.43348400       0.72595500
H       -1.06530100      -2.31673100       0.34375900
H        0.13567400      -3.38689400       0.99105200
H        0.55166500      -2.06630400      -0.00274100
H        0.00812300      -1.79069600       1.51620000
S        2.12078200       0.03980600      -0.07586600
O        1.97466000       1.51052600      -0.12500700
O        2.13907800      -0.51982300       1.27700100
O        1.18862900      -0.67838600      -0.98353200
O        3.55360100      -0.27027300      -0.76105200
H        4.23290700       0.23060200      -0.28871700
S       -2.22356000      -0.08302400      -0.12551400
O       -1.38666500       0.12880700       1.10836500
O       -2.34859800      -1.53291700      -0.39248400
O       -3.43289800       0.70961200      -0.17311500
O       -1.30482400       0.54260000      -1.31323200
H       -0.43589800       0.08184000      -1.34125200
