22
Properties=species:S:1:pos:R:3 Free_Energy:=T -1513.337091=T Electronic_Energy:=T -1513.45477541=T pbc="F F F"
N        0.52242300       2.40392400       0.92443000
H       -0.29314600       2.00166000       0.40682500
H        1.35802800       2.25585400       0.29432700
H        0.37694100       3.37358800       1.18716900
H        0.69787500       1.80606200       1.73439400
N       -0.02268500      -2.16489200       1.15808200
H        0.04272500      -2.96496900       1.77993400
H       -0.90376500      -1.61942000       1.30532900
H        0.77437000      -1.47331700       1.29216900
H        0.00594800      -2.46085100       0.18122400
S        2.28923700      -0.06969000      -0.22457200
O        1.71228500      -0.16428800       1.16532500
O        2.44608400       1.35693400      -0.59140700
O        3.40616500      -0.94871600      -0.47682500
O        1.09259300      -0.65217700      -1.16467500
H        0.31982400      -0.04411000      -1.12060200
S       -2.30980700       0.14234400      -0.11399600
O       -3.59523600       0.75399200      -0.37365200
O       -1.14421000       0.93449800      -0.62477000
O       -2.06043200      -0.35718100       1.25126600
O       -2.22779300      -1.25054300      -0.97983700
H       -2.58348700      -1.09033300      -1.86465900
