22
Properties=species:S:1:pos:R:3 Free_Energy:=T -1513.340165=T Electronic_Energy:=T -1513.45593450=T pbc="F F F"
N        0.03801400       2.21216800      -0.55136600
H        0.25849100       3.11816800      -0.95420300
H        0.55298600       1.45419600      -1.04449700
H        0.40049900       2.15285500       0.40718400
H       -0.99204600       2.00886100      -0.57579700
N       -0.00807100      -2.21047500      -0.52335200
H        0.25862700      -3.14721600      -0.81086100
H        0.59176200      -1.49361300      -0.98342700
H       -1.01240200      -1.99326300      -0.72250300
H        0.17293300      -2.07830700       0.47639200
S       -2.42312500       0.00127900       0.04322600
O       -1.26019600      -0.06242600       0.94473700
O       -2.54974400       1.33622600      -0.59116300
O       -2.49698500      -1.13791700      -0.88791600
O       -3.76053700      -0.18730500       0.93498500
H       -3.86318600       0.58789000       1.50336500
S        2.39757300      -0.00524600       0.18082400
O        2.23712200       1.24817700       0.92603900
O        2.24062500      -1.23825800       0.95468500
O        1.59158100      -0.02032800      -1.08313500
O        3.91140500      -0.00647500      -0.41005700
H        4.52540300      -0.01151100       0.33718200
