22
Properties=species:S:1:pos:R:3 Free_Energy:=T -1513.337250=T Electronic_Energy:=T -1513.45550758=T pbc="F F F"
N        0.74010800      -2.79472900      -0.07751900
H       -0.07905000      -2.19792500      -0.36797600
H        1.60103900      -2.24606600      -0.35502800
H        0.73941900      -2.87468700       0.93769700
H        0.70716800      -3.71233100      -0.51255700
N       -0.75672500       2.80206600      -0.06484400
H       -0.80058900       3.73524200      -0.46497900
H        0.09265100       2.29234500      -0.38841200
H       -0.74334000       2.84449400       0.95303400
H       -1.58623600       2.19352800      -0.35397700
S        2.10103800       0.20751700       0.07849300
O        2.64186400      -0.97030200      -0.63867600
O        1.24316700      -0.24612600       1.21345200
O        3.01466800       1.28740200       0.36973200
O        1.02986800       0.88882100      -0.97993500
H        0.31934000       0.22109000      -1.16581200
S       -2.07877600      -0.27439900      -0.03422300
O       -3.07559200      -1.23295100       0.38394900
O       -0.97582500      -0.88386100      -0.86749500
O       -2.58112100       0.96771400      -0.66991600
O       -1.31441200       0.28258300       1.27879200
H       -0.35121800       0.01682100       1.28700800
