22
Properties=species:S:1:pos:R:3 Free_Energy:=T -1513.341955=T Electronic_Energy:=T -1513.46299337=T pbc="F F F"
N       -0.54808900       2.81593900      -0.02553100
H        0.44809000       2.48321200       0.10804100
H       -0.97627800       2.08236100      -0.64253200
H       -1.04085200       2.78565100       0.86649800
H       -0.58758100       3.74427400      -0.43598300
N        0.54808900      -2.81593900       0.02553200
H        1.04085300      -2.78565100      -0.86649700
H        0.58758200      -3.74427400       0.43598400
H        0.97627800      -2.08236000       0.64253300
H       -0.44808900      -2.48321200      -0.10804000
S        2.04231800       0.21304300       0.06362100
O        1.85583500       1.67976400       0.10687500
O        3.40212200      -0.26994900       0.01390700
O        1.20306500      -0.45316200       1.12854300
O        1.37144300      -0.30615500      -1.31860200
H        0.41980800      -0.02243900      -1.34971800
H       -0.41980900       0.02243900       1.34971800
S       -2.04231800      -0.21304300      -0.06362100
O       -1.20306500       0.45316300      -1.12854200
O       -1.85583400      -1.67976300      -0.10687600
O       -1.37144400       0.30615400       1.31860300
O       -3.40212200       0.26994800      -0.01390700
