22
Properties=species:S:1:pos:R:3 Free_Energy:=T -1513.343883=T Electronic_Energy:=T -1513.46067378=T pbc="F F F"
N        0.23677100       2.37082800       1.01983000
H        0.65406800       1.69604500       1.67148600
H        0.83598600       2.25628000       0.16654900
H       -0.74543400       2.05818900       0.82872200
H        0.26790500       3.31811400       1.38368300
N        0.31505300      -2.41232900       1.01723200
H        0.89235100      -1.54834900       1.23977500
H        0.38430000      -3.12547500       1.73694300
H       -0.67241800      -2.07741100       0.89852800
H        0.66264500      -2.75853300       0.12240800
S        2.24880900       0.06969100      -0.22635500
O        1.56179000      -0.07251100       1.11626700
O        2.07314000       1.45189000      -0.71957600
O        3.57864100      -0.49264200      -0.26891100
O        1.36817900      -0.88482100      -1.19831300
H        0.46840100      -0.49239700      -1.31059500
S       -2.16856500      -0.00723300      -0.12173600
O       -2.22804300       1.26356600       0.63336800
O       -1.16592900       0.03897800      -1.20335400
O       -2.09596400      -1.21215700       0.71953100
O       -3.60861800      -0.17108300      -0.83209800
H       -3.76006400       0.59495700      -1.40278900
