22
Properties=species:S:1:pos:R:3 Free_Energy:=T -1513.339846=T Electronic_Energy:=T -1513.45590203=T pbc="F F F"
N       -0.91415500       2.59950400      -0.76126800
H       -0.92192000       3.35761400      -0.08321400
H       -0.88790500       2.97850700      -1.70407100
H       -0.05418600       2.02453900      -0.59535200
H       -1.78796200       2.00197800      -0.62559700
N        0.45400100      -2.60643000      -0.76888600
H       -0.32844200      -1.86692700      -0.83579100
H        0.26476800      -3.41869300      -1.34795200
H        1.32041400      -2.10469700      -1.05282400
H        0.55688400      -2.87041500       0.20944600
S        2.05960400       0.15230100       0.09027300
O        1.53584300       1.48424800      -0.27104100
O        2.40467300      -0.68147800      -1.07849900
O        3.44720400       0.43202400       0.87664700
O        1.26033000      -0.56861100       1.09803600
H       -0.36539500      -0.01647600       1.35490000
H        4.04906600       0.89522700       0.27799400
S       -2.16049200      -0.23437600       0.14623100
O       -2.96142000       0.93686100      -0.27824900
O       -2.88536200      -1.37361500       0.67503900
O       -1.17404700      -0.59409700      -0.92680800
O       -1.25347600       0.41229700       1.32105900
