 1
energy =  Electronic_Energy: -0.498801102423
H  0.000000  0.000000  0.000000
